 Gaussian 16, Revision C.01,

 -------------------------------------------------------------------
 #p opt freq=noraman def2svp pbe1pbe em=gd3bj integral=ultrafinegrid
 -------------------------------------------------------------------

 -------
 neutral
 -------
 Symbolic Z-matrix:
 Charge =  0 Multiplicity = 1

 SCF Done:  E(RPBE1PBE) =  -891.415794160     A.U. after   14 cycles
 SCF Done:  E(RPBE1PBE) =  -891.438795247     A.U. after   14 cycles
 SCF Done:  E(RPBE1PBE) =  -891.442188730     A.U. after   13 cycles
 SCF Done:  E(RPBE1PBE) =  -891.441297606     A.U. after   15 cycles
 SCF Done:  E(RPBE1PBE) =  -891.441914293     A.U. after   13 cycles
 SCF Done:  E(RPBE1PBE) =  -891.442799961     A.U. after   10 cycles
 SCF Done:  E(RPBE1PBE) =  -891.443225764     A.U. after   13 cycles
 SCF Done:  E(RPBE1PBE) =  -891.443255386     A.U. after   13 cycles
 SCF Done:  E(RPBE1PBE) =  -891.443401260     A.U. after   12 cycles
 SCF Done:  E(RPBE1PBE) =  -891.443418555     A.U. after   10 cycles
 SCF Done:  E(RPBE1PBE) =  -891.443655073     A.U. after    9 cycles
 SCF Done:  E(RPBE1PBE) =  -891.443657603     A.U. after    8 cycles
 SCF Done:  E(RPBE1PBE) =  -891.443657973     A.U. after    7 cycles
 SCF Done:  E(RPBE1PBE) =  -891.443657968     A.U. after    6 cycles
 SCF Done:  E(RPBE1PBE) =  -891.443657924     A.U. after    7 cycles
 SCF Done:  E(RPBE1PBE) =  -891.443657822     A.U. after    7 cycles
 SCF Done:  E(RPBE1PBE) =  -891.443657722     A.U. after    7 cycles
 SCF Done:  E(RPBE1PBE) =  -891.443657788     A.U. after    7 cycles
 Optimization completed.
    -- Stationary point found.
 Normal termination of Gaussian 16 at Thu Jan 23 18:47:19 2025.

 ---------------------------------------------------------------------
 #P Geom=AllCheck Guess=TCheck SCRF=Check GenChk RPBE1PBE/def2SVP Freq
 ---------------------------------------------------------------------

 Structure from the checkpoint file:  "neutral.chk"
 -------
 neutral
 -------
 Charge =  0 Multiplicity = 1

 SCF Done:  E(RPBE1PBE) =  -891.443657788     A.U. after    1 cycles

  Exact polarizability:     270.256      14.245     283.545     -18.083      10.841     187.683
 Approx polarizability:     393.821      26.086     429.573     -44.350      25.802     315.371

                      1                      2                      3
                      A                      A                      A
 Frequencies --     28.5154                29.8287                41.4786
 Red. masses --      4.1077                 3.8063                 3.1935
 Frc consts  --      0.0020                 0.0020                 0.0032
 IR Inten    --      0.0543                 0.0675                 0.0871

                      4                      5                      6
                      A                      A                      A
 Frequencies --     49.5490                60.2740                71.4987
 Red. masses --      1.6827                 1.5102                 4.0447
 Frc consts  --      0.0024                 0.0032                 0.0122
 IR Inten    --      0.2886                 1.3170                 0.6187

                      7                      8                      9
                      A                      A                      A
 Frequencies --     88.7453                93.9731               108.5956
 Red. masses --      2.8733                 1.4756                 1.2602
 Frc consts  --      0.0133                 0.0077                 0.0088
 IR Inten    --      1.2960                 0.0260                 0.2987

                     10                     11                     12
                      A                      A                      A
 Frequencies --    130.9595               144.4555               154.3857
 Red. masses --      2.2996                 1.9152                 1.2596
 Frc consts  --      0.0232                 0.0235                 0.0177
 IR Inten    --      1.0595                 0.5913                 0.1221

                     13                     14                     15
                      A                      A                      A
 Frequencies --    166.5185               183.9690               197.5767
 Red. masses --      2.4362                 4.1541                 4.9868
 Frc consts  --      0.0398                 0.0828                 0.1147
 IR Inten    --      0.1975                 0.2507                 1.7284

                     16                     17                     18
                      A                      A                      A
 Frequencies --    234.6799               253.5981               272.3158
 Red. masses --      3.4314                 3.4817                 4.3275
 Frc consts  --      0.1113                 0.1319                 0.1891
 IR Inten    --      0.0711                 0.4594                 5.7882

                     19                     20                     21
                      A                      A                      A
 Frequencies --    313.2899               328.4402               332.3702
 Red. masses --      2.7008                 3.3083                 3.1500
 Frc consts  --      0.1562                 0.2103                 0.2050
 IR Inten    --      2.4134                 1.2180                 1.1479

                     22                     23                     24
                      A                      A                      A
 Frequencies --    335.1924               346.8709               378.7475
 Red. masses --      3.0949                 3.5113                 4.0697
 Frc consts  --      0.2049                 0.2489                 0.3440
 IR Inten    --      1.4607                 1.9109                 0.9126

                     25                     26                     27
                      A                      A                      A
 Frequencies --    407.1761               437.6337               454.3473
 Red. masses --      6.5112                 3.1743                 3.6227
 Frc consts  --      0.6360                 0.3582                 0.4406
 IR Inten    --      0.1771                 0.6083                 1.7927

                     28                     29                     30
                      A                      A                      A
 Frequencies --    468.2916               486.0192               492.7619
 Red. masses --      4.7084                 3.6022                 3.7800
 Frc consts  --      0.6084                 0.5013                 0.5408
 IR Inten    --      0.5892                 1.0686                 2.2199

                     31                     32                     33
                      A                      A                      A
 Frequencies --    516.3823               553.3285               589.4510
 Red. masses --      5.2269                 3.5679                 2.0389
 Frc consts  --      0.8212                 0.6436                 0.4174
 IR Inten    --      0.4579                 0.2412                 8.5860

                     34                     35                     36
                      A                      A                      A
 Frequencies --    596.6952               620.2503               642.3696
 Red. masses --      2.5944                 3.8657                 3.5595
 Frc consts  --      0.5442                 0.8762                 0.8654
 IR Inten    --      1.3889                 2.4358                 0.7216

                     37                     38                     39
                      A                      A                      A
 Frequencies --    672.8021               724.4402               732.8811
 Red. masses --      7.2128                 5.7626                 1.8909
 Frc consts  --      1.9237                 1.7819                 0.5984
 IR Inten    --      4.6585                 2.8780                57.6836

                     40                     41                     42
                      A                      A                      A
 Frequencies --    763.1957               780.0340               797.1505
 Red. masses --      3.5977                 4.6086                 5.3229
 Frc consts  --      1.2347                 1.6521                 1.9929
 IR Inten    --      4.3620                 7.5520                 1.8360

                     43                     44                     45
                      A                      A                      A
 Frequencies --    813.2215               821.9074               832.9109
 Red. masses --      4.2662                 3.6538                 1.2888
 Frc consts  --      1.6623                 1.4542                 0.5268
 IR Inten    --      5.1161                 1.5773                15.8850

                     46                     47                     48
                      A                      A                      A
 Frequencies --    837.5508               844.8391               867.5980
 Red. masses --      1.4014                 1.2647                 5.7467
 Frc consts  --      0.5792                 0.5319                 2.5486
 IR Inten    --      6.9266                 0.2165                15.2889

                     49                     50                     51
                      A                      A                      A
 Frequencies --    884.8082               908.2813               941.8719
 Red. masses --      5.2586                 1.4543                 2.9756
 Frc consts  --      2.4256                 0.7069                 1.5553
 IR Inten    --      2.1153                 5.2512                 2.8730

                     52                     53                     54
                      A                      A                      A
 Frequencies --    947.6379               975.4911               978.4295
 Red. masses --      2.3334                 1.3247                 1.6585
 Frc consts  --      1.2346                 0.7427                 0.9355
 IR Inten    --      0.1969                 0.3501                19.0141

                     55                     56                     57
                      A                      A                      A
 Frequencies --    986.5104               998.5202              1015.8513
 Red. masses --      1.3220                 1.7428                 1.4274
 Frc consts  --      0.7580                 1.0238                 0.8679
 IR Inten    --      0.5825                 5.1204                 6.2758

                     58                     59                     60
                      A                      A                      A
 Frequencies --   1027.0139              1032.4977              1041.6155
 Red. masses --      1.5871                 1.3304                 1.6876
 Frc consts  --      0.9863                 0.8356                 1.0788
 IR Inten    --      8.4141                 0.0892                 3.1772

                     61                     62                     63
                      A                      A                      A
 Frequencies --   1045.9092              1048.0004              1050.7826
 Red. masses --      1.6631                 1.7877                 1.8885
 Frc consts  --      1.0719                 1.1568                 1.2286
 IR Inten    --      8.5627                 1.5969                 6.7600

                     64                     65                     66
                      A                      A                      A
 Frequencies --   1051.4751              1055.5376              1062.5916
 Red. masses --      1.7006                 1.3622                 2.4198
 Frc consts  --      1.1078                 0.8942                 1.6098
 IR Inten    --      2.3631                 0.1297                 7.1559

                     67                     68                     69
                      A                      A                      A
 Frequencies --   1071.3942              1126.6440              1153.6508
 Red. masses --      1.3091                 2.0584                 1.2647
 Frc consts  --      0.8854                 1.5394                 0.9917
 IR Inten    --      0.4804                18.3848                 2.4281

                     70                     71                     72
                      A                      A                      A
 Frequencies --   1191.0908              1220.2301              1230.4008
 Red. masses --      1.5873                 1.9683                 1.3786
 Frc consts  --      1.3267                 1.7268                 1.2297
 IR Inten    --     19.1358                 1.3255                 1.4438

                     73                     74                     75
                      A                      A                      A
 Frequencies --   1241.5442              1265.2192              1266.8931
 Red. masses --      2.3534                 1.2604                 1.6262
 Frc consts  --      2.1373                 1.1887                 1.5378
 IR Inten    --      7.2074                 1.9252                 3.7082

                     76                     77                     78
                      A                      A                      A
 Frequencies --   1270.6111              1279.2772              1294.5197
 Red. masses --      1.5485                 1.5299                 1.7886
 Frc consts  --      1.4729                 1.4752                 1.7660
 IR Inten    --      0.3536                 1.4430                13.0412

                     79                     80                     81
                      A                      A                      A
 Frequencies --   1327.8488              1350.0927              1360.3997
 Red. masses --      2.9772                 6.7759                 7.2458
 Frc consts  --      3.0928                 7.2768                 7.9007
 IR Inten    --      2.7025                 4.9317                 1.6288

                     82                     83                     84
                      A                      A                      A
 Frequencies --   1387.5063              1390.9078              1393.7873
 Red. masses --      1.3714                 1.3759                 1.3918
 Frc consts  --      1.5555                 1.5684                 1.5930
 IR Inten    --     11.0998                 1.7370                 0.1459

                     85                     86                     87
                      A                      A                      A
 Frequencies --   1395.9848              1414.8396              1425.4791
 Red. masses --      1.3633                 2.4721                 1.4323
 Frc consts  --      1.5653                 2.9156                 1.7147
 IR Inten    --      1.3952                 6.2378                 0.9557

                     88                     89                     90
                      A                      A                      A
 Frequencies --   1445.3617              1447.1123              1448.2495
 Red. masses --      1.0435                 1.0885                 1.0703
 Frc consts  --      1.2844                 1.3430                 1.3227
 IR Inten    --      6.8122                11.3388                 6.2509

                     91                     92                     93
                      A                      A                      A
 Frequencies --   1449.7153              1451.6369              1456.9560
 Red. masses --      1.1571                 1.0771                 1.2084
 Frc consts  --      1.4328                 1.3373                 1.5113
 IR Inten    --      4.8351                 6.8255                26.1921

                     94                     95                     96
                      A                      A                      A
 Frequencies --   1457.9444              1459.1071              1475.9324
 Red. masses --      1.1610                 1.2813                 1.3562
 Frc consts  --      1.4540                 1.6072                 1.7407
 IR Inten    --     30.6374                75.7585                36.0145

                     97                     98                     99
                      A                      A                      A
 Frequencies --   1501.0266              1513.1478              1520.3610
 Red. masses --      3.6384                 4.2441                 2.3887
 Frc consts  --      4.8299                 5.7253                 3.2531
 IR Inten    --     11.7882                51.1673                29.9588

                    100                    101                    102
                      A                      A                      A
 Frequencies --   1530.0357              1557.8075              1648.8986
 Red. masses --      4.6827                 7.6745                 6.4533
 Frc consts  --      6.4587                10.9730                10.3375
 IR Inten    --     25.3171               132.3779                37.0324

                    103                    104                    105
                      A                      A                      A
 Frequencies --   1656.7091              1667.7368              1671.0707
 Red. masses --      6.9191                 7.8482                 7.9930
 Frc consts  --     11.1890                12.8610                13.1507
 IR Inten    --      7.9029                 3.2536                 3.6793

                    106                    107                    108
                      A                      A                      A
 Frequencies --   1678.8027              1687.0968              3051.6483
 Red. masses --      4.9045                 8.2765                 1.0393
 Frc consts  --      8.1441                13.8795                 5.7026
 IR Inten    --     13.1387                44.3625                25.2031

                    109                    110                    111
                      A                      A                      A
 Frequencies --   3052.5493              3053.8861              3063.0225
 Red. masses --      1.0394                 1.0384                 1.0377
 Frc consts  --      5.7061                 5.7060                 5.7360
 IR Inten    --     15.5421                21.2882                15.2842

                    112                    113                    114
                      A                      A                      A
 Frequencies --   3132.4023              3137.3927              3138.1647
 Red. masses --      1.1000                 1.0995                 1.1008
 Frc consts  --      6.3590                 6.3764                 6.3874
 IR Inten    --      9.9215                 7.2967                 6.3573

                    115                    116                    117
                      A                      A                      A
 Frequencies --   3142.0006              3150.7081              3151.1126
 Red. masses --      1.0847                 1.0986                 1.0891
 Frc consts  --      6.3093                 6.4256                 6.3716
 IR Inten    --      8.3387                 4.5814                10.7968

                    118                    119                    120
                      A                      A                      A
 Frequencies --   3158.5364              3161.5863              3165.3035
 Red. masses --      1.1040                 1.0915                 1.1048
 Frc consts  --      6.4893                 6.4281                 6.5217
 IR Inten    --     15.0974                15.0510                13.3356

                    121                    122                    123
                      A                      A                      A
 Frequencies --   3166.9999              3173.6588              3176.3031
 Red. masses --      1.1049                 1.0902                 1.1051
 Frc consts  --      6.5295                 6.4694                 6.5691
 IR Inten    --      7.5172                 1.8191                 9.3106

                    124                    125                    126
                      A                      A                      A
 Frequencies --   3180.2542              3185.7589              3194.2200
 Red. masses --      1.0899                 1.0880                 1.0905
 Frc consts  --      6.4950                 6.5058                 6.5552
 IR Inten    --     13.5126                 8.9058                 8.1781

                    127                    128                    129
                      A                      A                      A
 Frequencies --   3196.8345              3203.8170              3219.2195
 Red. masses --      1.0949                 1.0968                 1.0968
 Frc consts  --      6.5927                 6.6332                 6.6971
 IR Inten    --     23.2960                24.9108                10.8613

 - Thermochemistry -
 -------------------
 Temperature   298.150 Kelvin.  Pressure   1.00000 Atm.
 Atom     1 has atomic number  6 and mass  12.00000

 Molecular mass:   299.18453 amu.
 Principal axes and moments of inertia in atomic units:
                           1         2         3
     Eigenvalues --  6010.278366357.690379901.56883
           X            0.99558  -0.09364  -0.00721
           Y            0.09371   0.99555   0.00972
           Z            0.00626  -0.01035   0.99993
 This molecule is an asymmetric top.
 Rotational symmetry number  1.
 Warning -- assumption of classical behavior for rotation
           may cause significant error
 Rotational temperatures (Kelvin)      0.01441     0.01362     0.00875
 Rotational constants (GHZ):           0.30028     0.28387     0.18227
 Zero-point vibrational energy     988057.4 (Joules/Mol)
                                  236.15139 (Kcal/Mol)
 Warning -- explicit consideration of  35 degrees of freedom as
           vibrations may cause significant error
 Vibrational temperatures:     41.03    42.92    59.68    71.29    86.72
          (Kelvin)            102.87   127.68   135.21   156.24   188.42
                              207.84   222.13   239.58   264.69   284.27
                              337.65   364.87   391.80   450.75   472.55
                              478.21   482.27   499.07   544.93   585.84
                              629.66   653.70   673.77   699.27   708.97
                              742.96   796.12   848.09   858.51   892.40
                              924.23   968.01  1042.31  1054.45  1098.07
                             1122.29  1146.92  1170.04  1182.54  1198.37
                             1205.05  1215.54  1248.28  1273.04  1306.81
                             1355.14  1363.44  1403.51  1407.74  1419.37
                             1436.65  1461.58  1477.64  1485.53  1498.65
                             1504.83  1507.84  1511.84  1512.84  1518.68
                             1528.83  1541.50  1620.99  1659.85  1713.71
                             1755.64  1770.27  1786.31  1820.37  1822.78
                             1828.13  1840.59  1862.53  1910.48  1942.48
                             1957.31  1996.31  2001.21  2005.35  2008.51
                             2035.64  2050.95  2079.55  2082.07  2083.71
                             2085.82  2088.58  2096.23  2097.66  2099.33
                             2123.54  2159.64  2177.08  2187.46  2201.38
                             2241.34  2372.40  2383.63  2399.50  2404.30
                             2415.42  2427.36  4390.64  4391.94  4393.86
                             4407.01  4506.83  4514.01  4515.12  4520.64
                             4533.17  4533.75  4544.43  4548.82  4554.17
                             4556.61  4566.19  4569.99  4575.68  4583.60
                             4595.77  4599.53  4609.58  4631.74

 Zero-point correction=                           0.376331 (Hartree/Particle)
 Thermal correction to Energy=                    0.398441
 Thermal correction to Enthalpy=                  0.399385
 Thermal correction to Gibbs Free Energy=         0.324026
 Sum of electronic and zero-point Energies=           -891.067327
 Sum of electronic and thermal Energies=              -891.045217
 Sum of electronic and thermal Enthalpies=            -891.044273
 Sum of electronic and thermal Free Energies=         -891.119632

                     E (Thermal)             CV                S
                      KCal/Mol        Cal/Mol-Kelvin    Cal/Mol-Kelvin
 Total                  250.025             83.891            158.606
 Electronic               0.000              0.000              0.000
 Translational            0.889              2.981             42.985
 Rotational               0.889              2.981             34.291
 Vibrational            248.248             77.930             81.330
 Vibration     1          0.593              1.984              5.930
 Vibration     2          0.594              1.984              5.841
 Vibration     3          0.594              1.981              5.187
 Vibration     4          0.595              1.978              4.835
 Vibration     5          0.597              1.973              4.448
 Vibration     6          0.598              1.968              4.112
 Vibration     7          0.602              1.957              3.688
 Vibration     8          0.603              1.953              3.576
 Vibration     9          0.606              1.942              3.294
 Vibration    10          0.612              1.922              2.932
 Vibration    11          0.616              1.909              2.744
 Vibration    12          0.620              1.898              2.617
 Vibration    13          0.624              1.884              2.474
 Vibration    14          0.631              1.862              2.288
 Vibration    15          0.637              1.843              2.156
 Vibration    16          0.654              1.788              1.843
 Vibration    17          0.665              1.757              1.705
 Vibration    18          0.675              1.724              1.581
 Vibration    19          0.701              1.648              1.345
 Vibration    20          0.712              1.619              1.268
 Vibration    21          0.714              1.611              1.249
 Vibration    22          0.716              1.605              1.235
 Vibration    23          0.725              1.582              1.180
 Vibration    24          0.749              1.515              1.044
 Vibration    25          0.772              1.455              0.937
 Vibration    26          0.798              1.388              0.834
 Vibration    27          0.813              1.351              0.783
 Vibration    28          0.825              1.320              0.742
 Vibration    29          0.842              1.281              0.694
 Vibration    30          0.848              1.266              0.676
 Vibration    31          0.871              1.214              0.618
 Vibration    32          0.909              1.132              0.537
 Vibration    33          0.947              1.054              0.468
 Vibration    34          0.955              1.039              0.455
 Vibration    35          0.980              0.989              0.416

 Optimization completed.
    -- Stationary point found.
 Normal termination of Gaussian 16 at Thu Jan 23 18:56:37 2025.
 Gaussian 16:  ES64L-G16RevC.01  3-Jul-2019

 ----------------------------------------------------------------------
 #p def2tzvp pbe1pbe integral=ultrafinegrid geom=allcheck guess=read em
 =gd3bj
 ----------------------------------------------------------------------

 Structure from the checkpoint file:  "neutral.chk"
 -------
 neutral
 -------
 Charge =  0 Multiplicity = 1

                         Standard orientation:
 ---------------------------------------------------------------------
 Center     Atomic      Atomic             Coordinates (Angstroms)
 Number     Number       Type             X           Y           Z
 ---------------------------------------------------------------------
      1          6           0        2.389662   -3.324066   -1.757448
      2          6           0        1.820940   -2.568977   -0.593275
      3          6           0        1.403237   -3.212046    0.576025
      4          6           0        0.912405   -2.443013    1.623843
      5          6           0        0.815452   -1.056288    1.497036
      6          6           0        0.307560   -0.203097    2.619536
      7          6           0        1.222972   -0.507353    0.263471
      8          6           0        1.106361    0.960015    0.004030
      9          6           0        2.270751    1.748914    0.015656
     10          6           0        3.616475    1.134160    0.268419
     11          6           0        2.134072    3.116008   -0.225567
     12          6           0        0.885758    3.677938   -0.476677
     13          6           0       -0.272950    2.899179   -0.482601
     14          6           0       -1.599786    3.548329   -0.773802
     15          6           0       -0.167340    1.512621   -0.234608
     16          5           0       -1.429618    0.555397   -0.259266
     17          6           0       -2.587848    0.810510    0.713096
     18          6           0       -3.732032    0.078245    0.913735
     19          6           0       -4.171921   -1.106673    0.262110
     20          6           0       -3.582688   -1.827453   -0.747567
     21          6           0       -2.360146   -1.602292   -1.438184
     22          6           0       -1.430712   -0.608361   -1.258952
     23          7           0        1.729689   -1.245711   -0.725724
     24          1           0        1.770355   -3.164186   -2.653524
     25          1           0        3.396345   -2.949445   -1.997487
     26          1           0        2.451066   -4.402674   -1.559101
     27          1           0        1.479229   -4.297876    0.666867
     28          1           0        0.604755   -2.921967    2.558116
     29          1           0        0.858514    0.745985    2.683060
     30          1           0        0.393472   -0.727972    3.581795
     31          1           0       -0.754478    0.055185    2.474405
     32          1           0        3.639274    0.594036    1.228628
     33          1           0        3.856410    0.395511   -0.511233
     34          1           0        4.406529    1.897909    0.285718
     35          1           0        3.024480    3.751185   -0.225578
     36          1           0        0.811004    4.750206   -0.680677
     37          1           0       -1.462891    4.528002   -1.253796
     38          1           0       -2.183478    3.715260    0.146473
     39          1           0       -2.223161    2.930683   -1.437596
     40          1           0       -2.502536    1.684589    1.371841
     41          1           0       -4.423016    0.434867    1.688277
     42          1           0       -5.129065   -1.499159    0.620924
     43          1           0       -4.140043   -2.710708   -1.076992
     44          1           0       -2.150416   -2.346465   -2.216836
     45          1           0       -0.563419   -0.677764   -1.926547
 ---------------------------------------------------------------------

 SCF Done:  E(RPBE1PBE) =  -892.368280595     A.U. after   12 cycles

 The electronic state is 1-A.
 Alpha  occ. eigenvalues --  -14.36825 -10.25977 -10.25764 -10.24820 -10.24794
 Alpha  occ. eigenvalues --  -10.24694 -10.24458 -10.23616 -10.23545 -10.22660
 Alpha  occ. eigenvalues --  -10.22316 -10.22302 -10.22049 -10.21790 -10.21567
 Alpha  occ. eigenvalues --  -10.21520 -10.21414 -10.21217 -10.21104 -10.20962
 Alpha  occ. eigenvalues --  -10.20567 -10.20021  -6.74610  -0.96846  -0.87521
 Alpha  occ. eigenvalues --   -0.85787  -0.83402  -0.81640  -0.79801  -0.79515
 Alpha  occ. eigenvalues --   -0.75913  -0.74671  -0.74452  -0.72952  -0.68405
 Alpha  occ. eigenvalues --   -0.66338  -0.66155  -0.64615  -0.62351  -0.61028
 Alpha  occ. eigenvalues --   -0.58721  -0.57112  -0.52910  -0.51404  -0.50994
 Alpha  occ. eigenvalues --   -0.50532  -0.49532  -0.48234  -0.47629  -0.46031
 Alpha  occ. eigenvalues --   -0.45046  -0.44330  -0.43009  -0.42755  -0.42332
 Alpha  occ. eigenvalues --   -0.42199  -0.41330  -0.41158  -0.40618  -0.39967
 Alpha  occ. eigenvalues --   -0.39772  -0.39229  -0.38848  -0.38545  -0.37595
 Alpha  occ. eigenvalues --   -0.37343  -0.37056  -0.36939  -0.35989  -0.34486
 Alpha  occ. eigenvalues --   -0.33556  -0.31837  -0.30344  -0.30087  -0.28899
 Alpha  occ. eigenvalues --   -0.26214  -0.25845  -0.25214  -0.23906  -0.23184
 Alpha virt. eigenvalues --   -0.07139  -0.05725  -0.02023  -0.00825   0.01117
 Alpha virt. eigenvalues --    0.01307   0.03655   0.05255   0.05586   0.06811
 Alpha virt. eigenvalues --    0.07070   0.07463   0.07754   0.08617   0.09420

 Mulliken charges:
               1
     1  C   -0.409387
     2  C    0.145650
     3  C   -0.146960
     4  C   -0.207191
     5  C    0.094839
     6  C   -0.360267
     7  C    0.060851
     8  C    0.149440
     9  C   -0.038576
    10  C   -0.403026
    11  C   -0.150541
    12  C   -0.245117
    13  C    0.072565
    14  C   -0.403336
    15  C   -0.027689
    16  B   -0.064365
    17  C   -0.156024
    18  C   -0.071322
    19  C   -0.110750
    20  C   -0.079426
    21  C   -0.114752
    22  C   -0.057471
    23  N   -0.234675
    24  H    0.132508
    25  H    0.136994
    26  H    0.121063
    27  H    0.116506
    28  H    0.113237
    29  H    0.147434
    30  H    0.125685
    31  H    0.138470
    32  H    0.126542
    33  H    0.148542
    34  H    0.123521
    35  H    0.096378
    36  H    0.094582
    37  H    0.129579
    38  H    0.124377
    39  H    0.139957
    40  H    0.125605
    41  H    0.116814
    42  H    0.124734
    43  H    0.125049
    44  H    0.113533
    45  H    0.136420
 Sum of Mulliken charges =  -0.00000

 Dipole moment (field-independent basis, Debye):
    X=             -1.8889    Y=             -2.0217    Z=              1.3065  Tot=              3.0598
 Quadrupole moment (field-independent basis, Debye-Ang):
   XX=           -127.0752   YY=           -125.0900   ZZ=           -134.5361
   XY=              1.9679   XZ=             -1.2200   YZ=              1.6948

 Normal termination of Gaussian 16 at Thu Jan 23 19:04:05 2025.
