 Gaussian 16, Revision C.01,

 -------------------------------------------------------------------
 #p opt freq=noraman def2svp pbe1pbe em=gd3bj integral=ultrafinegrid
 -------------------------------------------------------------------

 ------------
 with_hydride
 ------------
 Symbolic Z-matrix:
 Charge = -1 Multiplicity = 1

 SCF Done:  E(RPBE1PBE) =  -891.955545506     A.U. after   17 cycles
 SCF Done:  E(RPBE1PBE) =  -892.005708695     A.U. after   14 cycles
 SCF Done:  E(RPBE1PBE) =  -892.052383293     A.U. after   14 cycles
 SCF Done:  E(RPBE1PBE) =  -892.059379855     A.U. after   15 cycles
 SCF Done:  E(RPBE1PBE) =  -892.061200415     A.U. after   14 cycles
 SCF Done:  E(RPBE1PBE) =  -892.061233524     A.U. after   13 cycles
 SCF Done:  E(RPBE1PBE) =  -892.060671357     A.U. after   13 cycles
 SCF Done:  E(RPBE1PBE) =  -892.062645789     A.U. after   12 cycles
 SCF Done:  E(RPBE1PBE) =  -892.062800561     A.U. after   12 cycles
 SCF Done:  E(RPBE1PBE) =  -892.062876277     A.U. after   11 cycles
 SCF Done:  E(RPBE1PBE) =  -892.063351808     A.U. after   10 cycles
 SCF Done:  E(RPBE1PBE) =  -892.063393528     A.U. after   11 cycles
 SCF Done:  E(RPBE1PBE) =  -892.063417279     A.U. after   11 cycles
 SCF Done:  E(RPBE1PBE) =  -892.063428432     A.U. after   10 cycles
 SCF Done:  E(RPBE1PBE) =  -892.063431239     A.U. after   10 cycles
 SCF Done:  E(RPBE1PBE) =  -892.063433116     A.U. after    9 cycles
 SCF Done:  E(RPBE1PBE) =  -892.063433690     A.U. after    8 cycles
 SCF Done:  E(RPBE1PBE) =  -892.063433842     A.U. after    8 cycles
 Optimization completed.
    -- Stationary point found.
 Normal termination of Gaussian 16 at Fri Jan 24 17:14:40 2025.

 ---------------------------------------------------------------------
 #P Geom=AllCheck Guess=TCheck SCRF=Check GenChk RPBE1PBE/def2SVP Freq
 ---------------------------------------------------------------------

 Structure from the checkpoint file:  "with_hydride.chk"
 ------------
 with_hydride
 ------------
 Charge = -1 Multiplicity = 1

 SCF Done:  E(RPBE1PBE) =  -892.063433842     A.U. after    1 cycles

  Exact polarizability:     282.379       6.554     275.184      -8.062      -2.748     213.005
 Approx polarizability:     385.810      10.623     408.168     -17.672      -7.959     351.294

                      1                      2                      3
                      A                      A                      A
 Frequencies --     30.3156                38.0959                43.4203
 Red. masses --      4.5049                 3.6615                 3.4800
 Frc consts  --      0.0024                 0.0031                 0.0039
 IR Inten    --      0.4082                 0.2634                 0.1176

                      4                      5                      6
                      A                      A                      A
 Frequencies --     62.8717                71.6557                84.3999
 Red. masses --      2.6135                 1.6942                 1.8507
 Frc consts  --      0.0061                 0.0051                 0.0078
 IR Inten    --      0.8010                 0.1966                 2.5373

                      7                      8                      9
                      A                      A                      A
 Frequencies --     91.1483                98.4432               130.0087
 Red. masses --      1.3561                 3.6791                 2.5102
 Frc consts  --      0.0066                 0.0210                 0.0250
 IR Inten    --      1.3028                 0.5020                 2.2128

                     10                     11                     12
                      A                      A                      A
 Frequencies --    148.3049               167.7330               178.7488
 Red. masses --      2.2793                 3.1972                 1.1296
 Frc consts  --      0.0295                 0.0530                 0.0213
 IR Inten    --      0.4008                 0.9215                 0.3709

                     13                     14                     15
                      A                      A                      A
 Frequencies --    184.1822               189.0591               193.1918
 Red. masses --      1.3330                 3.6921                 2.5438
 Frc consts  --      0.0266                 0.0778                 0.0559
 IR Inten    --      0.3111                 1.2030                 1.3189

                     16                     17                     18
                      A                      A                      A
 Frequencies --    239.3570               278.6788               305.4673
 Red. masses --      3.5195                 4.0725                 3.3337
 Frc consts  --      0.1188                 0.1863                 0.1833
 IR Inten    --      0.5896                 2.5258                 0.3234

                     19                     20                     21
                      A                      A                      A
 Frequencies --    318.0280               330.2372               336.6804
 Red. masses --      2.7426                 3.0195                 3.1084
 Frc consts  --      0.1634                 0.1940                 0.2076
 IR Inten    --      3.4033                 4.5889                 0.9594

                     22                     23                     24
                      A                      A                      A
 Frequencies --    340.6218               346.2779               367.6603
 Red. masses --      3.2003                 3.4496                 3.6147
 Frc consts  --      0.2188                 0.2437                 0.2879
 IR Inten    --      0.7336                 1.3011                 1.2565

                     25                     26                     27
                      A                      A                      A
 Frequencies --    390.3333               419.1379               440.4020
 Red. masses --      5.6934                 2.7224                 3.3301
 Frc consts  --      0.5111                 0.2818                 0.3805
 IR Inten    --      0.0917                 4.4106                 2.4243

                     28                     29                     30
                      A                      A                      A
 Frequencies --    450.9807               476.2990               489.2739
 Red. masses --      3.2144                 4.2196                 3.7418
 Frc consts  --      0.3852                 0.5640                 0.5278
 IR Inten    --      2.0753                 0.1741                 1.8014

                     31                     32                     33
                      A                      A                      A
 Frequencies --    496.6582               565.1567               569.7227
 Red. masses --      3.8703                 2.3378                 2.9427
 Frc consts  --      0.5625                 0.4399                 0.5628
 IR Inten    --      1.6208                 0.2897                 1.6906

                     34                     35                     36
                      A                      A                      A
 Frequencies --    591.1902               624.8050               644.7837
 Red. masses --      2.8047                 3.9197                 3.7098
 Frc consts  --      0.5776                 0.9016                 0.9087
 IR Inten    --     17.1087                 2.6637                 2.2992

                     37                     38                     39
                      A                      A                      A
 Frequencies --    666.7896               686.7226               724.3099
 Red. masses --      3.9116                 2.1026                 4.6552
 Frc consts  --      1.0247                 0.5842                 1.4389
 IR Inten    --      3.9700                37.3926                 9.7202

                     40                     41                     42
                      A                      A                      A
 Frequencies --    749.8453               756.3227               768.1543
 Red. masses --      1.6663                 4.0654                 3.4915
 Frc consts  --      0.5520                 1.3701                 1.2138
 IR Inten    --      7.9592                 5.0280                11.9417

                     43                     44                     45
                      A                      A                      A
 Frequencies --    787.6728               805.3426               811.7710
 Red. masses --      3.7731                 2.3407                 2.6446
 Frc consts  --      1.3792                 0.8945                 1.0268
 IR Inten    --      5.8016                 5.0371                 7.3346

                     46                     47                     48
                      A                      A                      A
 Frequencies --    816.6025               820.5604               828.8282
 Red. masses --      1.8123                 1.5360                 1.9342
 Frc consts  --      0.7120                 0.6094                 0.7829
 IR Inten    --      8.8364                 8.2865                 7.7282

                     49                     50                     51
                      A                      A                      A
 Frequencies --    854.6142               862.0903               915.4146
 Red. masses --      3.2072                 3.4061                 2.7468
 Frc consts  --      1.3801                 1.4915                 1.3562
 IR Inten    --      1.5538                 1.4109                 7.9739

                     52                     53                     54
                      A                      A                      A
 Frequencies --    925.2256               937.7231               950.4115
 Red. masses --      2.9263                 1.9820                 1.3666
 Frc consts  --      1.4759                 1.0268                 0.7273
 IR Inten    --      1.9035                 0.2091                 0.2137

                     55                     56                     57
                      A                      A                      A
 Frequencies --    951.5875               964.9154               985.1049
 Red. masses --      2.0687                 1.3182                 1.2736
 Frc consts  --      1.1037                 0.7231                 0.7282
 IR Inten    --      2.3567                 0.3618                 0.0029

                     58                     59                     60
                      A                      A                      A
 Frequencies --    990.9210              1000.5178              1005.0161
 Red. masses --      1.4966                 1.3667                 1.5466
 Frc consts  --      0.8658                 0.8060                 0.9204
 IR Inten    --     11.6478                 5.7391                 9.1868

                     61                     62                     63
                      A                      A                      A
 Frequencies --   1015.5477              1017.5779              1032.7277
 Red. masses --      1.4106                 1.3989                 1.4597
 Frc consts  --      0.8571                 0.8534                 0.9173
 IR Inten    --      4.0482                10.8176                 4.6662

                     64                     65                     66
                      A                      A                      A
 Frequencies --   1034.7876              1042.1338              1044.5147
 Red. masses --      2.0468                 1.5392                 1.6350
 Frc consts  --      1.2913                 0.9849                 1.0510
 IR Inten    --      1.7455                 1.7326                 5.8332

                     67                     68                     69
                      A                      A                      A
 Frequencies --   1046.8797              1048.1761              1066.3487
 Red. masses --      1.5803                 1.5939                 1.7451
 Frc consts  --      1.0205                 1.0318                 1.1692
 IR Inten    --      2.3066                10.4024                36.4972

                     70                     71                     72
                      A                      A                      A
 Frequencies --   1077.9745              1113.3156              1142.8679
 Red. masses --      1.7251                 2.6896                 1.2870
 Frc consts  --      1.1811                 1.9641                 0.9904
 IR Inten    --     29.1631                14.5152                 3.3180

                     73                     74                     75
                      A                      A                      A
 Frequencies --   1169.2672              1191.9939              1202.5227
 Red. masses --      1.3130                 1.1810                 1.0974
 Frc consts  --      1.0577                 0.9886                 0.9350
 IR Inten    --      4.0785                28.8099                 0.1067

                     76                     77                     78
                      A                      A                      A
 Frequencies --   1220.4388              1237.6655              1258.4051
 Red. masses --      2.7459                 1.0905                 2.1785
 Frc consts  --      2.4097                 0.9842                 2.0325
 IR Inten    --      0.2402                 4.8714                 5.9752

                     79                     80                     81
                      A                      A                      A
 Frequencies --   1263.5327              1267.7932              1323.1132
 Red. masses --      1.6971                 2.4541                 3.0965
 Frc consts  --      1.5964                 2.3240                 3.1939
 IR Inten    --      8.3236                 4.1769                10.6164

                     82                     83                     84
                      A                      A                      A
 Frequencies --   1354.3397              1357.6641              1359.9133
 Red. masses --      4.6628                 6.2103                 1.3507
 Frc consts  --      5.0391                 6.7445                 1.4718
 IR Inten    --      6.5558                 5.6421                 0.1405

                     85                     86                     87
                      A                      A                      A
 Frequencies --   1381.8312              1383.3772              1388.4635
 Red. masses --      1.3611                 1.3860                 1.5094
 Frc consts  --      1.5313                 1.5628                 1.7145
 IR Inten    --      4.0085                 3.4915                 0.9006

                     88                     89                     90
                      A                      A                      A
 Frequencies --   1391.5289              1396.1076              1413.1106
 Red. masses --      1.4274                 1.4667                 2.7400
 Frc consts  --      1.6285                 1.6844                 3.2237
 IR Inten    --      2.8687                 0.3058                 7.3839

                     91                     92                     93
                      A                      A                      A
 Frequencies --   1440.4523              1441.1780              1442.7872
 Red. masses --      1.0468                 1.0623                 1.0541
 Frc consts  --      1.2798                 1.3000                 1.2928
 IR Inten    --      5.1662                 1.4745                 8.3721

                     94                     95                     96
                      A                      A                      A
 Frequencies --   1443.7058              1450.9512              1454.3395
 Red. masses --      1.0558                 1.2249                 1.0919
 Frc consts  --      1.2965                 1.5193                 1.3607
 IR Inten    --      5.7971                 2.8160                 3.3032

                     97                     98                     99
                      A                      A                      A
 Frequencies --   1461.4425              1463.3781              1475.1781
 Red. masses --      1.2142                 1.7407                 1.3148
 Frc consts  --      1.5279                 2.1963                 1.6858
 IR Inten    --      2.6190                 0.3237                36.1683

                    100                    101                    102
                      A                      A                      A
 Frequencies --   1488.1967              1501.1268              1520.6712
 Red. masses --      2.9584                 4.3624                 4.9351
 Frc consts  --      3.8604                 5.7917                 6.7238
 IR Inten    --     39.4304                23.2604                64.8468

                    103                    104                    105
                      A                      A                      A
 Frequencies --   1631.1250              1646.5526              1657.1930
 Red. masses --      9.7750                 6.4119                 6.7411
 Frc consts  --     15.3230                10.2421                10.9076
 IR Inten    --      1.8953                 4.2000                36.9773

                    106                    107                    108
                      A                      A                      A
 Frequencies --   1658.6036              1664.2404              1682.6006
 Red. masses --      8.0825                 7.9595                 8.3430
 Frc consts  --     13.1004                12.9887                13.9166
 IR Inten    --      2.0211                 6.5606                53.5139

                    109                    110                    111
                      A                      A                      A
 Frequencies --   1689.2421              2328.7745              3040.7580
 Red. masses --      5.5569                 1.0837                 1.0377
 Frc consts  --      9.3425                 3.4627                 5.6530
 IR Inten    --      2.2635               214.9006                52.7875

                    112                    113                    114
                      A                      A                      A
 Frequencies --   3041.8081              3047.6786              3052.7531
 Red. masses --      1.0375                 1.0388                 1.0369
 Frc consts  --      5.6557                 5.6848                 5.6934
 IR Inten    --     40.3768                56.2146                35.3503

                    115                    116                    117
                      A                      A                      A
 Frequencies --   3062.7087              3074.4272              3098.4625
 Red. masses --      1.0821                 1.0814                 1.0899
 Frc consts  --      5.9806                 6.0224                 6.1652
 IR Inten    --     24.3369                23.0925                87.1153

                    118                    119                    120
                      A                      A                      A
 Frequencies --   3104.9182              3120.7980              3123.9167
 Red. masses --      1.0922                 1.0874                 1.1008
 Frc consts  --      6.2039                 6.2400                 6.3293
 IR Inten    --     39.9992                74.8660                16.9875

                    121                    122                    123
                      A                      A                      A
 Frequencies --   3133.7111              3141.1520              3141.2335
 Red. masses --      1.1018                 1.1023                 1.1029
 Frc consts  --      6.3751                 6.4083                 6.4120
 IR Inten    --      9.2940                 4.9547                29.6290

                    124                    125                    126
                      A                      A                      A
 Frequencies --   3141.7674              3145.0607              3145.7352
 Red. masses --      1.0998                 1.1042                 1.0950
 Frc consts  --      6.3961                 6.4351                 6.3840
 IR Inten    --      6.0998                29.5677               114.9718

                    127                    128                    129
                      A                      A                      A
 Frequencies --   3150.3631              3156.5598              3160.3333
 Red. masses --      1.1045                 1.0868                 1.1049
 Frc consts  --      6.4585                 6.3800                 6.5017
 IR Inten    --     19.3513                24.5064                16.6016

                    130                    131                    132
                      A                      A                      A
 Frequencies --   3179.2855              3179.7263              3203.7155
 Red. masses --      1.0894                 1.0959                 1.0966
 Frc consts  --      6.4880                 6.5283                 6.6317
 IR Inten    --     23.0222                62.1710                33.1660

 - Thermochemistry -
 -------------------
 Temperature   298.150 Kelvin.  Pressure   1.00000 Atm.
 Atom     1 has atomic number  6 and mass  12.00000

 Molecular mass:   300.19236 amu.
 Principal axes and moments of inertia in atomic units:
                           1         2         3
     Eigenvalues --  5516.308267976.49421**********
           X            0.99992  -0.01135  -0.00513
           Y            0.01137   0.99992   0.00510
           Z            0.00508  -0.00516   0.99997
 This molecule is an asymmetric top.
 Rotational symmetry number  1.
 Warning -- assumption of classical behavior for rotation
           may cause significant error
 Rotational temperatures (Kelvin)      0.01570     0.01086     0.00811
 Rotational constants (GHZ):           0.32716     0.22626     0.16896
 Zero-point vibrational energy    1003262.1 (Joules/Mol)
                                  239.78540 (Kcal/Mol)
 Warning -- explicit consideration of  34 degrees of freedom as
           vibrations may cause significant error
 Vibrational temperatures:     43.62    54.81    62.47    90.46   103.10
          (Kelvin)            121.43   131.14   141.64   187.05   213.38
                              241.33   257.18   265.00   272.01   277.96
                              344.38   400.96   439.50   457.57   475.14
                              484.41   490.08   498.22   528.98   561.60
                              603.05   633.64   648.86   685.29   703.96
                              714.58   813.13   819.70   850.59   898.96
                              927.70   959.36   988.04  1042.12  1078.86
                             1088.18  1105.20  1133.29  1158.71  1167.96
                             1174.91  1180.60  1192.50  1229.60  1240.36
                             1317.08  1331.19  1349.17  1367.43  1369.12
                             1388.30  1417.35  1425.71  1439.52  1445.99
                             1461.15  1464.07  1485.86  1488.83  1499.40
                             1502.82  1506.23  1508.09  1534.24  1550.96
                             1601.81  1644.33  1682.31  1715.01  1730.16
                             1755.94  1780.72  1810.56  1817.94  1824.07
                             1903.66  1948.59  1953.38  1956.61  1988.15
                             1990.37  1997.69  2002.10  2008.69  2033.15
                             2072.49  2073.53  2075.85  2077.17  2087.60
                             2092.47  2102.69  2105.47  2122.45  2141.18
                             2159.79  2187.91  2346.83  2369.02  2384.33
                             2386.36  2394.47  2420.89  2430.44  3350.59
                             4374.97  4376.48  4384.93  4392.23  4406.55
                             4423.42  4458.00  4467.28  4490.13  4494.62
                             4508.71  4519.42  4519.53  4520.30  4525.04
                             4526.01  4532.67  4541.59  4547.01  4574.28
                             4574.92  4609.43

 Zero-point correction=                           0.382122 (Hartree/Particle)
 Thermal correction to Energy=                    0.404190
 Thermal correction to Enthalpy=                  0.405134
 Thermal correction to Gibbs Free Energy=         0.330973
 Sum of electronic and zero-point Energies=           -891.681311
 Sum of electronic and thermal Energies=              -891.659244
 Sum of electronic and thermal Enthalpies=            -891.658300
 Sum of electronic and thermal Free Energies=         -891.732461

                     E (Thermal)             CV                S
                      KCal/Mol        Cal/Mol-Kelvin    Cal/Mol-Kelvin
 Total                  253.633             85.906            156.085
 Electronic               0.000              0.000              0.000
 Translational            0.889              2.981             42.995
 Rotational               0.889              2.981             34.507
 Vibrational            251.855             79.945             78.583
 Vibration     1          0.594              1.984              5.809
 Vibration     2          0.594              1.982              5.356
 Vibration     3          0.595              1.980              5.097
 Vibration     4          0.597              1.972              4.365
 Vibration     5          0.598              1.968              4.107
 Vibration     6          0.601              1.960              3.786
 Vibration     7          0.602              1.955              3.635
 Vibration     8          0.604              1.950              3.485
 Vibration     9          0.612              1.923              2.946
 Vibration    10          0.618              1.905              2.694
 Vibration    11          0.624              1.882              2.461
 Vibration    12          0.629              1.868              2.341
 Vibration    13          0.631              1.861              2.286
 Vibration    14          0.633              1.855              2.237
 Vibration    15          0.635              1.849              2.197
 Vibration    16          0.657              1.780              1.808
 Vibration    17          0.679              1.713              1.542
 Vibration    18          0.696              1.663              1.387
 Vibration    19          0.704              1.639              1.320
 Vibration    20          0.713              1.615              1.259
 Vibration    21          0.717              1.602              1.228
 Vibration    22          0.720              1.594              1.209
 Vibration    23          0.724              1.583              1.183
 Vibration    24          0.740              1.539              1.090
 Vibration    25          0.758              1.491              0.999
 Vibration    26          0.782              1.429              0.895
 Vibration    27          0.800              1.382              0.825
 Vibration    28          0.810              1.359              0.793
 Vibration    29          0.833              1.303              0.720
 Vibration    30          0.845              1.274              0.685
 Vibration    31          0.852              1.257              0.667
 Vibration    32          0.921              1.107              0.514
 Vibration    33          0.926              1.097              0.505
 Vibration    34          0.949              1.051              0.465

                           ! Non-Optimized Parameters !
 Normal termination of Gaussian 16 at Fri Jan 24 17:23:49 2025.
 Gaussian 16:  ES64L-G16RevC.01  3-Jul-2019

 ----------------------------------------------------------------------
 #p def2tzvp pbe1pbe integral=ultrafinegrid geom=allcheck guess=read em
 =gd3bj
 ----------------------------------------------------------------------

 Structure from the checkpoint file:  "with_hydride.chk"
 ------------
 with_hydride
 ------------
 Charge = -1 Multiplicity = 1

                         Standard orientation:
 ---------------------------------------------------------------------
 Center     Atomic      Atomic             Coordinates (Angstroms)
 Number     Number       Type             X           Y           Z
 ---------------------------------------------------------------------
      1          6           0        3.660991   -2.241302   -2.042403
      2          6           0        2.929714   -1.814062   -0.801881
      3          6           0        2.951996   -2.571247    0.367428
      4          6           0        2.247149   -2.102284    1.475278
      5          6           0        1.523723   -0.917353    1.398968
      6          6           0        0.719107   -0.410091    2.552231
      7          6           0        1.552968   -0.227252    0.163542
      8          6           0        0.858799    1.087870    0.005958
      9          6           0        1.680695    2.236434   -0.004301
     10          6           0        3.175275    2.129141    0.124566
     11          6           0        1.073552    3.482513   -0.138578
     12          6           0       -0.309639    3.576405   -0.268640
     13          6           0       -1.119343    2.439105   -0.263465
     14          6           0       -2.606281    2.617569   -0.420421
     15          6           0       -0.545284    1.147403   -0.117227
     16          5           0       -1.471166   -0.200924   -0.111645
     17          6           0       -2.535183   -0.185954    1.111504
     18          6           0       -3.502336   -1.104565    1.353561
     19          6           0       -3.884174   -2.212068    0.499115
     20          6           0       -3.758844   -2.306425   -0.852610
     21          6           0       -3.206610   -1.332745   -1.774205
     22          6           0       -2.282591   -0.380322   -1.498365
     23          7           0        2.257323   -0.662931   -0.879361
     24          1           0        2.949333   -2.372581   -2.872455
     25          1           0        4.372391   -1.460760   -2.355155
     26          1           0        4.209106   -3.183179   -1.894980
     27          1           0        3.514154   -3.507644    0.413503
     28          1           0        2.250193   -2.671976    2.410086
     29          1           0        0.865266    0.670443    2.699684
     30          1           0        0.977180   -0.939607    3.481870
     31          1           0       -0.354299   -0.558474    2.347477
     32          1           0        3.467509    1.573801    1.031349
     33          1           0        3.602041    1.574796   -0.725487
     34          1           0        3.640660    3.125736    0.167606
     35          1           0        1.690508    4.387265   -0.143611
     36          1           0       -0.773927    4.562962   -0.378445
     37          1           0       -2.868108    3.682046   -0.528030
     38          1           0       -3.159012    2.204483    0.436411
     39          1           0       -2.989063    2.070848   -1.295094
     40          1           0       -2.475363    0.614971    1.868941
     41          1           0       -4.083296   -1.033675    2.286565
     42          1           0       -4.424383   -3.030166    0.995130
     43          1           0       -4.209464   -3.193789   -1.318460
     44          1           0       -3.591907   -1.418249   -2.802227
     45          1           0       -2.048524    0.285435   -2.345943
     46          1           0       -0.748521   -1.202166    0.014695
 ---------------------------------------------------------------------

 SCF Done:  E(RPBE1PBE) =  -892.994074129     A.U. after   12 cycles

 The electronic state is 1-A.
 Alpha  occ. eigenvalues --  -14.25762 -10.15347 -10.14602 -10.12816 -10.12447
 Alpha  occ. eigenvalues --  -10.12310 -10.12163 -10.10873 -10.10668 -10.10283
 Alpha  occ. eigenvalues --  -10.09791 -10.09723 -10.09657 -10.09571 -10.08641
 Alpha  occ. eigenvalues --  -10.08630 -10.08534 -10.07309 -10.07023 -10.07016
 Alpha  occ. eigenvalues --  -10.05927 -10.05764  -6.54625  -0.85803  -0.75533
 Alpha  occ. eigenvalues --   -0.72430  -0.70664  -0.69329  -0.67956  -0.64487
 Alpha  occ. eigenvalues --   -0.63240  -0.63041  -0.61587  -0.58880  -0.57362
 Alpha  occ. eigenvalues --   -0.54710  -0.53576  -0.50350  -0.49328  -0.48327
 Alpha  occ. eigenvalues --   -0.45577  -0.43704  -0.40233  -0.39654  -0.37494
 Alpha  occ. eigenvalues --   -0.37037  -0.36514  -0.34955  -0.34760  -0.34090
 Alpha  occ. eigenvalues --   -0.33211  -0.32454  -0.31324  -0.31086  -0.30732
 Alpha  occ. eigenvalues --   -0.30564  -0.29900  -0.29141  -0.28942  -0.28821
 Alpha  occ. eigenvalues --   -0.28328  -0.27436  -0.26884  -0.26405  -0.25741
 Alpha  occ. eigenvalues --   -0.25337  -0.23017  -0.22935  -0.21864  -0.21854
 Alpha  occ. eigenvalues --   -0.20624  -0.18187  -0.16332  -0.15475  -0.14776
 Alpha  occ. eigenvalues --   -0.14300  -0.13416  -0.12610  -0.11584  -0.10482
 Alpha  occ. eigenvalues --   -0.06217
 Alpha virt. eigenvalues --    0.08671   0.10149   0.10486   0.12728   0.12956
 Alpha virt. eigenvalues --    0.14352   0.15748   0.15857   0.16460   0.16797
 Alpha virt. eigenvalues --    0.17293   0.18391   0.19024   0.19104   0.19665

 Mulliken charges:
               1
     1  C   -0.414901
     2  C    0.166658
     3  C   -0.167036
     4  C   -0.188159
     5  C    0.038406
     6  C   -0.344171
     7  C    0.210605
     8  C    0.073760
     9  C    0.005034
    10  C   -0.400919
    11  C   -0.183821
    12  C   -0.260585
    13  C    0.062082
    14  C   -0.311294
    15  C    0.034673
    16  B   -0.184723
    17  C   -0.181928
    18  C   -0.172834
    19  C   -0.105922
    20  C   -0.100897
    21  C   -0.173278
    22  C   -0.151173
    23  N   -0.276542
    24  H    0.132902
    25  H    0.117510
    26  H    0.100454
    27  H    0.084734
    28  H    0.085775
    29  H    0.124213
    30  H    0.087949
    31  H    0.165425
    32  H    0.114610
    33  H    0.134959
    34  H    0.098856
    35  H    0.056165
    36  H    0.054665
    37  H    0.083205
    38  H    0.106479
    39  H    0.107493
    40  H    0.082706
    41  H    0.050525
    42  H    0.061787
    43  H    0.061968
    44  H    0.049823
    45  H    0.072916
    46  H   -0.008154
 Sum of Mulliken charges =  -1.00000

 Dipole moment (field-independent basis, Debye):
    X=              5.4717    Y=              0.2437    Z=              1.6668  Tot=              5.7251
 Quadrupole moment (field-independent basis, Debye-Ang):
   XX=           -175.4200   YY=           -156.2926   ZZ=           -148.3413
   XY=             -8.9073   XZ=             -0.0149   YZ=             -0.7996

 Normal termination of Gaussian 16 at Fri Jan 24 17:31:03 2025.
