 Gaussian 16, Revision C.01,

 -------------------------------------------------------------------
 #p opt freq=noraman def2svp pbe1pbe em=gd3bj integral=ultrafinegrid
 -------------------------------------------------------------------

 -----------
 with_proton
 -----------
 Symbolic Z-matrix:
 Charge =  1 Multiplicity = 1

 SCF Done:  E(RPBE1PBE) =  -891.813661491     A.U. after   16 cycles
 SCF Done:  E(RPBE1PBE) =  -891.840694988     A.U. after   14 cycles
 SCF Done:  E(RPBE1PBE) =  -891.845034267     A.U. after   13 cycles
 SCF Done:  E(RPBE1PBE) =  -891.842807515     A.U. after   16 cycles
 SCF Done:  E(RPBE1PBE) =  -891.845810160     A.U. after   13 cycles
 SCF Done:  E(RPBE1PBE) =  -891.846208116     A.U. after   12 cycles
 SCF Done:  E(RPBE1PBE) =  -891.846442732     A.U. after   13 cycles
 SCF Done:  E(RPBE1PBE) =  -891.846574546     A.U. after   11 cycles
 SCF Done:  E(RPBE1PBE) =  -891.846608182     A.U. after   11 cycles
 SCF Done:  E(RPBE1PBE) =  -891.846644650     A.U. after   11 cycles
 SCF Done:  E(RPBE1PBE) =  -891.846929747     A.U. after    9 cycles
 SCF Done:  E(RPBE1PBE) =  -891.846929466     A.U. after    9 cycles
 SCF Done:  E(RPBE1PBE) =  -891.846929062     A.U. after   10 cycles
 SCF Done:  E(RPBE1PBE) =  -891.846930074     A.U. after   10 cycles
 SCF Done:  E(RPBE1PBE) =  -891.846932664     A.U. after   10 cycles
 SCF Done:  E(RPBE1PBE) =  -891.846933752     A.U. after    9 cycles
 SCF Done:  E(RPBE1PBE) =  -891.846935158     A.U. after    8 cycles
 SCF Done:  E(RPBE1PBE) =  -891.846935503     A.U. after    6 cycles
 Optimization completed.
    -- Stationary point found.
 Normal termination of Gaussian 16 at Fri Jan 24 17:19:53 2025.

 ---------------------------------------------------------------------
 #P Geom=AllCheck Guess=TCheck SCRF=Check GenChk RPBE1PBE/def2SVP Freq
 ---------------------------------------------------------------------

 Structure from the checkpoint file:  "with_proton.chk"
 -----------
 with_proton
 -----------
 Charge =  1 Multiplicity = 1

 SCF Done:  E(RPBE1PBE) =  -891.846935503     A.U. after    1 cycles

  Exact polarizability:     262.467      13.607     277.493     -17.743       9.372     193.336
 Approx polarizability:     380.377      25.366     422.675     -43.606      22.860     326.754

                      1                      2                      3
                      A                      A                      A
 Frequencies --     16.2641                31.0031                37.7552
 Red. masses --      3.6069                 3.9900                 1.2961
 Frc consts  --      0.0006                 0.0023                 0.0011
 IR Inten    --      1.0024                 0.0922                 0.4370

                      4                      5                      6
                      A                      A                      A
 Frequencies --     39.1692                52.1048                68.2402
 Red. masses --      2.4352                 2.3292                 3.6204
 Frc consts  --      0.0022                 0.0037                 0.0099
 IR Inten    --      0.1073                 0.2623                 0.8024

                      7                      8                      9
                      A                      A                      A
 Frequencies --     76.6518                85.7050                88.9400
 Red. masses --      1.2606                 1.6950                 1.6984
 Frc consts  --      0.0044                 0.0073                 0.0079
 IR Inten    --      0.2965                 0.3217                 0.8110

                     10                     11                     12
                      A                      A                      A
 Frequencies --     97.5593               136.8185               142.4317
 Red. masses --      1.2299                 2.4007                 2.4723
 Frc consts  --      0.0069                 0.0265                 0.0296
 IR Inten    --      0.4378                 0.3806                 0.7710

                     13                     14                     15
                      A                      A                      A
 Frequencies --    158.2486               178.1257               191.6134
 Red. masses --      3.3204                 3.9437                 5.0380
 Frc consts  --      0.0490                 0.0737                 0.1090
 IR Inten    --      1.2714                 1.3617                 0.7836

                     16                     17                     18
                      A                      A                      A
 Frequencies --    230.6197               245.9022               261.1138
 Red. masses --      3.3770                 3.3891                 3.7819
 Frc consts  --      0.1058                 0.1207                 0.1519
 IR Inten    --      1.0119                 0.4102                 0.0923

                     19                     20                     21
                      A                      A                      A
 Frequencies --    309.6056               327.4911               330.3185
 Red. masses --      2.7123                 3.1911                 3.2200
 Frc consts  --      0.1532                 0.2016                 0.2070
 IR Inten    --      0.4784                 0.2410                 1.8133

                     22                     23                     24
                      A                      A                      A
 Frequencies --    330.9695               345.1500               378.4648
 Red. masses --      3.1529                 3.5197                 4.0203
 Frc consts  --      0.2035                 0.2470                 0.3393
 IR Inten    --      0.9781                 3.4895                 3.2135

                     25                     26                     27
                      A                      A                      A
 Frequencies --    407.3563               427.6568               445.8567
 Red. masses --      6.2976                 3.0613                 3.0227
 Frc consts  --      0.6157                 0.3299                 0.3540
 IR Inten    --      0.6974                 1.1463                 4.4026

                     28                     29                     30
                      A                      A                      A
 Frequencies --    465.0782               482.3926               486.9375
 Red. masses --      5.1004                 3.3961                 3.9114
 Frc consts  --      0.6500                 0.4656                 0.5464
 IR Inten    --      0.4968                 4.2070                 3.4573

                     31                     32                     33
                      A                      A                      A
 Frequencies --    516.6823               554.0773               589.3613
 Red. masses --      5.2325                 3.6052                 2.5083
 Frc consts  --      0.8230                 0.6521                 0.5133
 IR Inten    --      0.0698                 2.4220                 2.1614

                     34                     35                     36
                      A                      A                      A
 Frequencies --    592.8062               612.3245               627.6455
 Red. masses --      2.0883                 3.9950                 3.4829
 Frc consts  --      0.4324                 0.8825                 0.8084
 IR Inten    --      6.7042                 0.5592                 2.1874

                     37                     38                     39
                      A                      A                      A
 Frequencies --    672.0272               722.2147               732.6428
 Red. masses --      7.0916                 5.3414                 1.9802
 Frc consts  --      1.8870                 1.6415                 0.6262
 IR Inten    --      1.2352                 2.0134                53.3348

                     40                     41                     42
                      A                      A                      A
 Frequencies --    756.8373               770.3475               795.9143
 Red. masses --      3.2683                 4.1106                 4.9055
 Frc consts  --      1.1030                 1.4372                 1.8309
 IR Inten    --      6.2990                 1.9533                 2.8392

                     43                     44                     45
                      A                      A                      A
 Frequencies --    797.2156               809.5994               844.4505
 Red. masses --      4.1471                 3.7173                 1.3528
 Frc consts  --      1.5529                 1.4356                 0.5684
 IR Inten    --      5.0732                 9.1441                29.7753

                     46                     47                     48
                      A                      A                      A
 Frequencies --    845.6169               849.1256               865.5098
 Red. masses --      1.2442                 1.2583                 3.4438
 Frc consts  --      0.5242                 0.5345                 1.5200
 IR Inten    --     13.4231                 4.5178                 3.8840

                     49                     50                     51
                      A                      A                      A
 Frequencies --    872.7138               882.4874               913.1324
 Red. masses --      1.4844                 5.2159                 1.4292
 Frc consts  --      0.6661                 2.3933                 0.7021
 IR Inten    --     19.3623                 1.9862                 3.5213

                     52                     53                     54
                      A                      A                      A
 Frequencies --    943.1789               951.6968               978.2521
 Red. masses --      2.9844                 2.2370                 1.7228
 Frc consts  --      1.5642                 1.1937                 0.9714
 IR Inten    --      0.7234                 0.1285                20.0667

                     55                     56                     57
                      A                      A                      A
 Frequencies --    992.4470               999.9819              1005.4322
 Red. masses --      1.3363                 1.6640                 1.3604
 Frc consts  --      0.7755                 0.9803                 0.8102
 IR Inten    --      0.1333                 7.5527                 0.9704

                     58                     59                     60
                      A                      A                      A
 Frequencies --   1020.8305              1026.9738              1041.7778
 Red. masses --      1.3879                 1.5875                 1.3314
 Frc consts  --      0.8521                 0.9865                 0.8514
 IR Inten    --      6.1970                10.8700                 0.0061

                     61                     62                     63
                      A                      A                      A
 Frequencies --   1045.1973              1048.2970              1051.1455
 Red. masses --      1.6659                 1.6445                 1.6427
 Frc consts  --      1.0723                 1.0647                 1.0694
 IR Inten    --      4.4472                 0.8330                 7.4735

                     64                     65                     66
                      A                      A                      A
 Frequencies --   1052.5839              1055.8594              1060.3336
 Red. masses --      2.0923                 2.1095                 1.6088
 Frc consts  --      1.3658                 1.3856                 1.0657
 IR Inten    --      6.0926                18.9964                 1.5158

                     67                     68                     69
                      A                      A                      A
 Frequencies --   1061.0538              1075.4989              1132.0155
 Red. masses --      1.5461                 1.3317                 2.1438
 Frc consts  --      1.0255                 0.9076                 1.6186
 IR Inten    --      0.4745                 0.0908                 6.0300

                     70                     71                     72
                      A                      A                      A
 Frequencies --   1165.0372              1195.8151              1228.0026
 Red. masses --      1.2493                 1.5188                 1.3101
 Frc consts  --      0.9990                 1.2796                 1.1640
 IR Inten    --      9.8921                15.1974                 2.6688

                     73                     74                     75
                      A                      A                      A
 Frequencies --   1229.4192              1244.3474              1265.2608
 Red. masses --      2.0145                 2.4993                 1.1395
 Frc consts  --      1.7940                 2.2801                 1.0748
 IR Inten    --      0.5140                 7.0906                 1.4299

                     76                     77                     78
                      A                      A                      A
 Frequencies --   1271.5615              1275.6514              1283.8216
 Red. masses --      1.9982                 1.6571                 1.8168
 Frc consts  --      1.9036                 1.5888                 1.7642
 IR Inten    --      2.4621                 1.1428                 2.1395

                     79                     80                     81
                      A                      A                      A
 Frequencies --   1297.3828              1327.6671              1348.2373
 Red. masses --      1.4778                 2.2171                 2.2292
 Frc consts  --      1.4655                 2.3026                 2.3875
 IR Inten    --      7.5467                 2.5358                16.9551

                     82                     83                     84
                      A                      A                      A
 Frequencies --   1360.7148              1378.2597              1394.5172
 Red. masses --      6.7111                 2.8705                 1.2828
 Frc consts  --      7.3212                 3.2127                 1.4698
 IR Inten    --      5.7585                32.8249                12.5263

                     85                     86                     87
                      A                      A                      A
 Frequencies --   1397.4630              1399.0969              1400.8832
 Red. masses --      1.3377                 1.4474                 1.3882
 Frc consts  --      1.5392                 1.6693                 1.6051
 IR Inten    --      1.6915                 3.7731                 3.4801

                     88                     89                     90
                      A                      A                      A
 Frequencies --   1428.2198              1430.7777              1443.8489
 Red. masses --      1.4644                 1.8558                 1.1353
 Frc consts  --      1.7600                 2.2383                 1.3944
 IR Inten    --      1.4991                16.0736                 3.0215

                     91                     92                     93
                      A                      A                      A
 Frequencies --   1447.8195              1449.1691              1451.3079
 Red. masses --      1.0955                 1.0427                 1.0904
 Frc consts  --      1.3530                 1.2902                 1.3532
 IR Inten    --      4.9057                10.2979                19.0011

                     94                     95                     96
                      A                      A                      A
 Frequencies --   1453.1824              1456.0835              1458.3251
 Red. masses --      1.2574                 1.1617                 1.3139
 Frc consts  --      1.5644                 1.4511                 1.6463
 IR Inten    --      7.5919                27.9998                97.6102

                     97                     98                     99
                      A                      A                      A
 Frequencies --   1459.3522              1476.0393              1493.9154
 Red. masses --      1.0943                 1.5223                 2.9776
 Frc consts  --      1.3731                 1.9542                 3.9153
 IR Inten    --     27.9944                31.6802                22.7396

                    100                    101                    102
                      A                      A                      A
 Frequencies --   1515.7065              1523.0345              1562.0351
 Red. masses --      4.0886                 2.3901                 7.4743
 Frc consts  --      5.5342                 3.2665                10.7449
 IR Inten    --     14.9233                18.9159               132.3189

                    103                    104                    105
                      A                      A                      A
 Frequencies --   1598.2363              1647.6663              1658.0262
 Red. masses --      3.3902                 6.5319                 7.3115
 Frc consts  --      5.1021                10.4478                11.8424
 IR Inten    --    105.1650                 9.4141                 0.1714

                    106                    107                    108
                      A                      A                      A
 Frequencies --   1667.9486              1674.5551              1677.1065
 Red. masses --      7.6015                 4.8360                 6.6127
 Frc consts  --     12.4600                 7.9899                10.9586
 IR Inten    --      5.0201                 8.7574                76.5773

                    109                    110                    111
                      A                      A                      A
 Frequencies --   1702.7833              3049.9158              3061.2598
 Red. masses --      5.6967                 1.0418                 1.0392
 Frc consts  --      9.7318                 5.7095                 5.7379
 IR Inten    --     91.5654                16.9596                 8.0092

                    112                    113                    114
                      A                      A                      A
 Frequencies --   3065.1025              3065.8900              3127.9601
 Red. masses --      1.0404                 1.0404                 1.1009
 Frc consts  --      5.7588                 5.7618                 6.3466
 IR Inten    --      2.5363                 0.3092                 6.5657

                    115                    116                    117
                      A                      A                      A
 Frequencies --   3135.1203              3143.6761              3149.1726
 Red. masses --      1.0854                 1.1011                 1.0864
 Frc consts  --      6.2854                 6.4112                 6.3478
 IR Inten    --     14.9597                 3.2655                 5.6782

                    118                    119                    120
                      A                      A                      A
 Frequencies --   3151.5317              3156.2640              3166.7412
 Red. masses --      1.1034                 1.0986                 1.0912
 Frc consts  --      6.4568                 6.4481                 6.4473
 IR Inten    --      0.0804                 0.8457                14.0608

                    121                    122                    123
                      A                      A                      A
 Frequencies --   3172.3985              3173.3815              3176.0504
 Red. masses --      1.1038                 1.0918                 1.1018
 Frc consts  --      6.5452                 6.4778                 6.5482
 IR Inten    --      7.5851                 3.8439                 3.2633

                    124                    125                    126
                      A                      A                      A
 Frequencies --   3191.1658              3193.0631              3204.6657
 Red. masses --      1.1063                 1.0893                 1.1030
 Frc consts  --      6.6380                 6.5436                 6.6739
 IR Inten    --      0.6647                 2.1441                 0.5250

                    127                    128                    129
                      A                      A                      A
 Frequencies --   3204.7024              3207.6369              3219.7126
 Red. masses --      1.0894                 1.0950                 1.0973
 Frc consts  --      6.5920                 6.6382                 6.7021
 IR Inten    --      2.5602                 4.3246                 3.0707

                    130                    131                    132
                      A                      A                      A
 Frequencies --   3220.0197              3251.6181              3571.6735
 Red. masses --      1.0934                 1.0970                 1.0797
 Frc consts  --      6.6794                 6.8338                 8.1150
 IR Inten    --      0.0749                 4.0573                80.5144

 - Thermochemistry -
 -------------------
 Temperature   298.150 Kelvin.  Pressure   1.00000 Atm.
 Atom     1 has atomic number  6 and mass  12.00000

 Molecular mass:   300.19236 amu.
 Principal axes and moments of inertia in atomic units:
                           1         2         3
     Eigenvalues --  6059.944736532.074309918.98828
           X            0.99757  -0.06918  -0.00854
           Y            0.06926   0.99755   0.01021
           Z            0.00781  -0.01078   0.99991
 This molecule is an asymmetric top.
 Rotational symmetry number  1.
 Warning -- assumption of classical behavior for rotation
           may cause significant error
 Rotational temperatures (Kelvin)      0.01429     0.01326     0.00873
 Rotational constants (GHZ):           0.29781     0.27629     0.18195
 Zero-point vibrational energy    1024229.7 (Joules/Mol)
                                  244.79677 (Kcal/Mol)
 Warning -- explicit consideration of  35 degrees of freedom as
           vibrations may cause significant error
 Vibrational temperatures:     23.40    44.61    54.32    56.36    74.97
          (Kelvin)             98.18   110.28   123.31   127.96   140.37
                              196.85   204.93   227.68   256.28   275.69
                              331.81   353.80   375.68   445.45   471.19
                              475.25   476.19   496.59   544.53   586.09
                              615.30   641.49   669.14   694.06   700.59
                              743.39   797.19   847.96   852.92   881.00
                              903.04   966.90  1039.11  1054.11  1088.92
                             1108.36  1145.14  1147.02  1164.83  1214.98
                             1216.65  1221.70  1245.28  1255.64  1269.70
                             1313.79  1357.02  1369.28  1407.49  1427.91
                             1438.75  1446.59  1468.75  1477.59  1498.89
                             1503.81  1508.27  1512.36  1514.43  1519.15
                             1525.58  1526.62  1547.40  1628.72  1676.23
                             1720.51  1766.82  1768.86  1790.34  1820.43
                             1829.49  1835.38  1847.13  1866.64  1910.22
                             1939.81  1957.77  1983.01  2006.40  2010.64
                             2012.99  2015.56  2054.89  2058.57  2077.38
                             2083.09  2085.03  2088.11  2090.81  2094.98
                             2098.20  2099.68  2123.69  2149.41  2180.76
                             2191.31  2247.42  2299.51  2370.62  2385.53
                             2399.81  2409.31  2412.98  2449.93  4388.15
                             4404.47  4410.00  4411.13  4500.44  4510.74
                             4523.05  4530.96  4534.35  4541.16  4556.23
                             4564.37  4565.79  4569.63  4591.38  4594.11
                             4610.80  4610.85  4615.07  4632.45  4632.89
                             4678.35  5138.84

 Zero-point correction=                           0.390108 (Hartree/Particle)
 Thermal correction to Energy=                    0.412649
 Thermal correction to Enthalpy=                  0.413593
 Thermal correction to Gibbs Free Energy=         0.336085
 Sum of electronic and zero-point Energies=           -891.456827
 Sum of electronic and thermal Energies=              -891.434286
 Sum of electronic and thermal Enthalpies=            -891.433342
 Sum of electronic and thermal Free Energies=         -891.510851

                     E (Thermal)             CV                S
                      KCal/Mol        Cal/Mol-Kelvin    Cal/Mol-Kelvin
 Total                  258.941             84.742            163.131
 Electronic               0.000              0.000              0.000
 Translational            0.889              2.981             42.995
 Rotational               0.889              2.981             34.328
 Vibrational            257.164             78.780             85.808
 Vibration     1          0.593              1.986              7.045
 Vibration     2          0.594              1.984              5.764
 Vibration     3          0.594              1.982              5.374
 Vibration     4          0.594              1.981              5.301
 Vibration     5          0.596              1.977              4.736
 Vibration     6          0.598              1.969              4.203
 Vibration     7          0.599              1.965              3.975
 Vibration     8          0.601              1.959              3.756
 Vibration     9          0.602              1.957              3.683
 Vibration    10          0.603              1.951              3.503
 Vibration    11          0.614              1.917              2.848
 Vibration    12          0.616              1.911              2.771
 Vibration    13          0.621              1.893              2.571
 Vibration    14          0.629              1.869              2.348
 Vibration    15          0.634              1.851              2.212
 Vibration    16          0.652              1.794              1.874
 Vibration    17          0.660              1.770              1.760
 Vibration    18          0.669              1.744              1.654
 Vibration    19          0.699              1.655              1.364
 Vibration    20          0.711              1.621              1.272
 Vibration    21          0.713              1.615              1.259
 Vibration    22          0.713              1.614              1.255
 Vibration    23          0.724              1.585              1.188
 Vibration    24          0.749              1.516              1.045
 Vibration    25          0.772              1.454              0.936
 Vibration    26          0.789              1.410              0.866
 Vibration    27          0.805              1.370              0.808
 Vibration    28          0.823              1.328              0.751
 Vibration    29          0.839              1.289              0.704
 Vibration    30          0.843              1.279              0.692
 Vibration    31          0.872              1.213              0.618
 Vibration    32          0.909              1.131              0.536
 Vibration    33          0.947              1.054              0.468
 Vibration    34          0.950              1.047              0.462
 Vibration    35          0.972              1.006              0.429

                           ! Non-Optimized Parameters !
 Normal termination of Gaussian 16 at Fri Jan 24 17:30:25 2025.
 Gaussian 16:  ES64L-G16RevC.01  3-Jul-2019

 ----------------------------------------------------------------------
 #p def2tzvp pbe1pbe integral=ultrafinegrid geom=allcheck guess=read em
 =gd3bj
 ----------------------------------------------------------------------

 Structure from the checkpoint file:  "with_proton.chk"
 -----------
 with_proton
 -----------
 Charge =  1 Multiplicity = 1

                         Standard orientation:
 ---------------------------------------------------------------------
 Center     Atomic      Atomic             Coordinates (Angstroms)
 Number     Number       Type             X           Y           Z
 ---------------------------------------------------------------------
      1          6           0        2.509221   -3.154112   -1.887399
      2          6           0        1.936037   -2.513185   -0.672144
      3          6           0        1.589449   -3.176947    0.494812
      4          6           0        1.071672   -2.457950    1.569467
      5          6           0        0.872720   -1.074096    1.508789
      6          6           0        0.324328   -0.303630    2.664627
      7          6           0        1.208580   -0.434672    0.308994
      8          6           0        1.051622    1.013397    0.041308
      9          6           0        2.194849    1.836490    0.091192
     10          6           0        3.551872    1.292397    0.441329
     11          6           0        2.010032    3.191187   -0.183405
     12          6           0        0.750676    3.693489   -0.497254
     13          6           0       -0.381915    2.875498   -0.529127
     14          6           0       -1.723592    3.456697   -0.875775
     15          6           0       -0.238590    1.500784   -0.245361
     16          5           0       -1.483946    0.512849   -0.256407
     17          6           0       -2.557268    0.688322    0.817820
     18          6           0       -3.670702   -0.079720    1.066151
     19          6           0       -4.136578   -1.235646    0.384135
     20          6           0       -3.621994   -1.880740   -0.715944
     21          6           0       -2.471179   -1.580542   -1.491846
     22          6           0       -1.542445   -0.579971   -1.322737
     23          7           0        1.730603   -1.179530   -0.691920
     24          1           0        1.861740   -2.988990   -2.763198
     25          1           0        3.504029   -2.741773   -2.119722
     26          1           0        2.614768   -4.235051   -1.739684
     27          1           0        1.736936   -4.255448    0.560307
     28          1           0        0.819428   -2.988618    2.491468
     29          1           0        0.754637    0.705654    2.710976
     30          1           0        0.518791   -0.823927    3.611615
     31          1           0       -0.766482   -0.185989    2.559622
     32          1           0        3.517392    0.636858    1.325687
     33          1           0        3.992172    0.704037   -0.381134
     34          1           0        4.254757    2.107213    0.659176
     35          1           0        2.868933    3.866023   -0.149291
     36          1           0        0.644169    4.758203   -0.721366
     37          1           0       -1.625749    4.475616   -1.273720
     38          1           0       -2.380432    3.509284    0.006969
     39          1           0       -2.248157    2.847486   -1.627380
     40          1           0       -2.441204    1.533695    1.508683
     41          1           0       -4.307703    0.222900    1.905989
     42          1           0       -5.054906   -1.669394    0.792148
     43          1           0       -4.192128   -2.750413   -1.057099
     44          1           0       -2.328480   -2.255843   -2.344530
     45          1           0       -0.758977   -0.574445   -2.093048
     46          1           0        1.961214   -0.666902   -1.542770
 ---------------------------------------------------------------------

 SCF Done:  E(RPBE1PBE) =  -892.770214170     A.U. after   11 cycles

 The electronic state is 1-A.
 Alpha  occ. eigenvalues --  -14.62145 -10.44842 -10.44111 -10.39992 -10.39772
 Alpha  occ. eigenvalues --  -10.39054 -10.37388 -10.35587 -10.35485 -10.35118
 Alpha  occ. eigenvalues --  -10.35111 -10.35016 -10.34945 -10.34420 -10.33866
 Alpha  occ. eigenvalues --  -10.33140 -10.32876 -10.32764 -10.32709 -10.32536
 Alpha  occ. eigenvalues --  -10.32403 -10.30820  -6.85737  -1.19031  -1.01470
 Alpha  occ. eigenvalues --   -1.00450  -0.97889  -0.96219  -0.91877  -0.90467
 Alpha  occ. eigenvalues --   -0.90402  -0.88952  -0.85725  -0.84588  -0.84001
 Alpha  occ. eigenvalues --   -0.82246  -0.79886  -0.77584  -0.76886  -0.74274
 Alpha  occ. eigenvalues --   -0.72545  -0.70285  -0.69251  -0.67452  -0.63745
 Alpha  occ. eigenvalues --   -0.63354  -0.63075  -0.61769  -0.61617  -0.60264
 Alpha  occ. eigenvalues --   -0.59680  -0.58501  -0.56930  -0.56621  -0.56565
 Alpha  occ. eigenvalues --   -0.56114  -0.54740  -0.54273  -0.54127  -0.53230
 Alpha  occ. eigenvalues --   -0.52537  -0.52351  -0.52073  -0.51293  -0.51129
 Alpha  occ. eigenvalues --   -0.50517  -0.48863  -0.48275  -0.47827  -0.46997
 Alpha  occ. eigenvalues --   -0.46593  -0.46287  -0.45731  -0.42972  -0.42137
 Alpha  occ. eigenvalues --   -0.41423  -0.40467  -0.37437  -0.36411  -0.35014
 Alpha virt. eigenvalues --   -0.20733  -0.17873  -0.16751  -0.15921  -0.12067
 Alpha virt. eigenvalues --   -0.10813  -0.10042  -0.06056  -0.05886  -0.05559
 Alpha virt. eigenvalues --   -0.05442  -0.03875  -0.02997  -0.02749  -0.02092

 Mulliken charges:
               1
     1  C   -0.418447
     2  C    0.130135
     3  C   -0.105750
     4  C   -0.185648
     5  C    0.140462
     6  C   -0.367933
     7  C    0.080542
     8  C   -0.086170
     9  C    0.007518
    10  C   -0.395672
    11  C   -0.151922
    12  C   -0.212676
    13  C    0.061985
    14  C   -0.402485
    15  C    0.018974
    16  B   -0.083407
    17  C   -0.173796
    18  C   -0.066923
    19  C   -0.100864
    20  C   -0.094189
    21  C   -0.097012
    22  C   -0.066953
    23  N   -0.022071
    24  H    0.173252
    25  H    0.176318
    26  H    0.170207
    27  H    0.175970
    28  H    0.166547
    29  H    0.170832
    30  H    0.158292
    31  H    0.169555
    32  H    0.142584
    33  H    0.127107
    34  H    0.164305
    35  H    0.131003
    36  H    0.130492
    37  H    0.149832
    38  H    0.142199
    39  H    0.152202
    40  H    0.154123
    41  H    0.144552
    42  H    0.152673
    43  H    0.151065
    44  H    0.133484
    45  H    0.088200
    46  H    0.267509
 Sum of Mulliken charges =   1.00000

 Dipole moment (field-independent basis, Debye):
    X=              2.9633    Y=             -5.7698    Z=             -0.2984  Tot=              6.4931
 Quadrupole moment (field-independent basis, Debye-Ang):
   XX=            -96.4091   YY=            -93.5297   ZZ=           -116.5389
   XY=             -5.1034   XZ=             -7.6103   YZ=              3.4384

 Normal termination of Gaussian 16 at Fri Jan 24 17:37:34 2025.
