 Gaussian 16, Revision C.01,

 -------------------------------------------------------------------
 #p opt freq=noraman def2svp pbe1pbe em=gd3bj integral=ultrafinegrid
 -------------------------------------------------------------------

 -------
 neutral
 -------
 Symbolic Z-matrix:
 Charge =  0 Multiplicity = 1

 SCF Done:  E(RPBE1PBE) =  -745.273788960     A.U. after   13 cycles
 SCF Done:  E(RPBE1PBE) =  -745.291069648     A.U. after   12 cycles
 SCF Done:  E(RPBE1PBE) =  -745.294756218     A.U. after   11 cycles
 SCF Done:  E(RPBE1PBE) =  -745.295006846     A.U. after   11 cycles
 SCF Done:  E(RPBE1PBE) =  -745.295298052     A.U. after   11 cycles
 SCF Done:  E(RPBE1PBE) =  -745.295750269     A.U. after   11 cycles
 SCF Done:  E(RPBE1PBE) =  -745.295804921     A.U. after    9 cycles
 SCF Done:  E(RPBE1PBE) =  -745.295829527     A.U. after   10 cycles
 SCF Done:  E(RPBE1PBE) =  -745.295848767     A.U. after   10 cycles
 SCF Done:  E(RPBE1PBE) =  -745.295863023     A.U. after   10 cycles
 SCF Done:  E(RPBE1PBE) =  -745.295867164     A.U. after    8 cycles
 SCF Done:  E(RPBE1PBE) =  -745.295868792     A.U. after    7 cycles
 SCF Done:  E(RPBE1PBE) =  -745.295868908     A.U. after    7 cycles
 SCF Done:  E(RPBE1PBE) =  -745.295868897     A.U. after    6 cycles
 SCF Done:  E(RPBE1PBE) =  -745.295868979     A.U. after    6 cycles
 Optimization completed.
    -- Stationary point found.
 Normal termination of Gaussian 16 at Thu Jan 23 18:34:58 2025.

 ---------------------------------------------------------------------
 #P Geom=AllCheck Guess=TCheck SCRF=Check GenChk RPBE1PBE/def2SVP Freq
 ---------------------------------------------------------------------

 Structure from the checkpoint file:  "neutral.chk"
 -------
 neutral
 -------
 Charge =  0 Multiplicity = 1

 SCF Done:  E(RPBE1PBE) =  -745.295868979     A.U. after    1 cycles

  Exact polarizability:     226.263       1.697     186.836      -0.886      -1.426     170.655
 Approx polarizability:     272.851       1.208     265.339      -1.948      -1.433     259.001

                      1                      2                      3
                      A                      A                      A
 Frequencies --     23.8542                48.2479                53.7050
 Red. masses --      3.4785                 3.4143                 3.3407
 Frc consts  --      0.0012                 0.0047                 0.0057
 IR Inten    --      0.0962                 0.0099                 0.0803

                      4                      5                      6
                      A                      A                      A
 Frequencies --     80.5426               100.6380               126.7408
 Red. masses --      3.1575                 3.6089                 1.9017
 Frc consts  --      0.0121                 0.0215                 0.0180
 IR Inten    --      0.0231                 0.5450                 0.0272

                      7                      8                      9
                      A                      A                      A
 Frequencies --    163.1783               180.3678               182.8399
 Red. masses --      2.5689                 2.0723                 2.6785
 Frc consts  --      0.0403                 0.0397                 0.0528
 IR Inten    --      0.1292                 0.0659                 0.3264

                     10                     11                     12
                      A                      A                      A
 Frequencies --    222.3252               227.7154               238.6272
 Red. masses --      2.4508                 1.9878                 2.5015
 Frc consts  --      0.0714                 0.0607                 0.0839
 IR Inten    --      0.2991                 0.8423                 0.1603

                     13                     14                     15
                      A                      A                      A
 Frequencies --    256.7996               268.1898               287.1702
 Red. masses --      2.4569                 1.3549                 1.1255
 Frc consts  --      0.0955                 0.0574                 0.0547
 IR Inten    --      0.4363                 0.1327                 0.0158

                     16                     17                     18
                      A                      A                      A
 Frequencies --    292.1742               298.8621               315.5207
 Red. masses --      2.0218                 2.1222                 2.2607
 Frc consts  --      0.1017                 0.1117                 0.1326
 IR Inten    --      0.0513                 1.5219                 0.1411

                     19                     20                     21
                      A                      A                      A
 Frequencies --    326.6742               337.7989               353.5539
 Red. masses --      2.4784                 1.9893                 2.6519
 Frc consts  --      0.1558                 0.1337                 0.1953
 IR Inten    --      0.2601                 0.4879                 1.0079

                     22                     23                     24
                      A                      A                      A
 Frequencies --    379.2938               385.8366               392.9696
 Red. masses --      2.1056                 2.9729                 1.8507
 Frc consts  --      0.1785                 0.2608                 0.1684
 IR Inten    --      0.0460                 0.3030                 2.1830

                     25                     26                     27
                      A                      A                      A
 Frequencies --    454.2602               469.0136               494.1877
 Red. masses --      2.0958                 2.6450                 2.5651
 Frc consts  --      0.2548                 0.3428                 0.3691
 IR Inten    --      0.6297                 6.9262                 1.8167

                     28                     29                     30
                      A                      A                      A
 Frequencies --    527.7658               548.8476               634.6802
 Red. masses --      2.3975                 1.9984                 2.1838
 Frc consts  --      0.3935                 0.3547                 0.5183
 IR Inten    --      0.3016                 0.5596                 2.8081

                     31                     32                     33
                      A                      A                      A
 Frequencies --    678.9963               697.4466               706.2324
 Red. masses --      3.1386                 4.1795                 1.9010
 Frc consts  --      0.8526                 1.1978                 0.5586
 IR Inten    --     16.6435                 1.5284                11.5521

                     34                     35                     36
                      A                      A                      A
 Frequencies --    747.2177               767.9832               786.3375
 Red. masses --      2.2577                 1.6853                 1.4208
 Frc consts  --      0.7427                 0.5856                 0.5176
 IR Inten    --      1.8379                 2.1110                 2.0475

                     37                     38                     39
                      A                      A                      A
 Frequencies --    797.1081               823.2257               838.6702
 Red. masses --      2.4440                 2.1833                 2.3457
 Frc consts  --      0.9149                 0.8718                 0.9721
 IR Inten    --      0.9440                 9.3432                 1.4422

                     40                     41                     42
                      A                      A                      A
 Frequencies --    848.3807               854.4620               861.9903
 Red. masses --      2.2033                 2.1736                 1.4266
 Frc consts  --      0.9343                 0.9350                 0.6246
 IR Inten    --      0.3694                 2.0107                 1.2200

                     43                     44                     45
                      A                      A                      A
 Frequencies --    881.6297               890.0312               923.9875
 Red. masses --      2.2356                 2.4984                 1.5623
 Frc consts  --      1.0238                 1.1661                 0.7859
 IR Inten    --      5.0658                 0.9175                 1.9313

                     46                     47                     48
                      A                      A                      A
 Frequencies --    933.3557               939.6054               945.0693
 Red. masses --      2.3561                 1.8209                 1.9934
 Frc consts  --      1.2093                 0.9471                 1.0490
 IR Inten    --     13.7038                 0.0278                 5.9911

                     49                     50                     51
                      A                      A                      A
 Frequencies --    964.2301               975.3727               986.7441
 Red. masses --      1.7514                 1.7490                 1.5568
 Frc consts  --      0.9594                 0.9804                 0.8931
 IR Inten    --      1.1283                 3.6389                 1.5356

                     52                     53                     54
                      A                      A                      A
 Frequencies --    987.8398               994.7839              1007.4338
 Red. masses --      1.8135                 1.6111                 1.7310
 Frc consts  --      1.0426                 0.9394                 1.0351
 IR Inten    --      0.9545                 0.1724                12.7040

                     55                     56                     57
                      A                      A                      A
 Frequencies --   1019.9358              1039.8845              1045.0300
 Red. masses --      1.6603                 1.9774                 2.1270
 Frc consts  --      1.0176                 1.2598                 1.3686
 IR Inten    --     28.8991                 0.5371                13.2280

                     58                     59                     60
                      A                      A                      A
 Frequencies --   1047.4368              1080.9504              1083.4180
 Red. masses --      1.5629                 1.3393                 1.8273
 Frc consts  --      1.0103                 0.9220                 1.2637
 IR Inten    --     11.8238                 4.3342                11.2157

                     61                     62                     63
                      A                      A                      A
 Frequencies --   1092.6906              1093.9666              1111.7195
 Red. masses --      1.7338                 2.0503                 1.4339
 Frc consts  --      1.2196                 1.4457                 1.0441
 IR Inten    --      9.1960                 6.3997                 4.8242

                     64                     65                     66
                      A                      A                      A
 Frequencies --   1125.9632              1144.6976              1149.5903
 Red. masses --      2.2002                 1.9122                 1.5128
 Frc consts  --      1.6435                 1.4763                 1.1779
 IR Inten    --      5.6455                 1.3061                 2.7753

                     67                     68                     69
                      A                      A                      A
 Frequencies --   1156.6227              1162.7224              1184.5152
 Red. masses --      1.3707                 1.2176                 2.2008
 Frc consts  --      1.0804                 0.9699                 1.8193
 IR Inten    --     23.5451                23.3651                 2.7574

                     70                     71                     72
                      A                      A                      A
 Frequencies --   1195.4568              1198.0975              1211.6411
 Red. masses --      1.7155                 1.6497                 1.7182
 Frc consts  --      1.4445                 1.3952                 1.4862
 IR Inten    --      3.0862                 1.5737                11.1442

                     73                     74                     75
                      A                      A                      A
 Frequencies --   1215.9552              1235.5029              1240.9246
 Red. masses --      2.1439                 1.2991                 1.3066
 Frc consts  --      1.8676                 1.1684                 1.1854
 IR Inten    --     31.1040                 1.1657                 5.1242

                     76                     77                     78
                      A                      A                      A
 Frequencies --   1241.8746              1248.7320              1280.7514
 Red. masses --      1.6117                 1.5407                 1.4726
 Frc consts  --      1.4645                 1.4155                 1.4232
 IR Inten    --      4.3375                 5.9618                23.3310

                     79                     80                     81
                      A                      A                      A
 Frequencies --   1287.0455              1296.7402              1300.9678
 Red. masses --      1.7895                 1.3996                 1.2703
 Frc consts  --      1.7465                 1.3867                 1.2667
 IR Inten    --      3.3187                18.2921                 9.3562

                     82                     83                     84
                      A                      A                      A
 Frequencies --   1302.7286              1311.3660              1314.1369
 Red. masses --      1.2627                 1.4952                 1.4290
 Frc consts  --      1.2626                 1.5149                 1.4540
 IR Inten    --      0.3493                16.3118                 5.6992

                     85                     86                     87
                      A                      A                      A
 Frequencies --   1328.0422              1334.7172              1338.5649
 Red. masses --      1.9010                 1.3241                 1.3295
 Frc consts  --      1.9754                 1.3898                 1.4035
 IR Inten    --     21.2983                 8.6073                 0.7105

                     88                     89                     90
                      A                      A                      A
 Frequencies --   1348.1302              1355.4003              1363.4334
 Red. masses --      1.5099                 1.5818                 1.3860
 Frc consts  --      1.6168                 1.7122                 1.5180
 IR Inten    --      3.1216                 8.6505                 8.3971

                     91                     92                     93
                      A                      A                      A
 Frequencies --   1366.4807              1376.9070              1380.7502
 Red. masses --      1.3100                 1.5302                 1.5931
 Frc consts  --      1.4412                 1.7093                 1.7895
 IR Inten    --     14.9948                 2.9745                15.4222

                     94                     95                     96
                      A                      A                      A
 Frequencies --   1383.4161              1385.9464              1387.3861
 Red. masses --      1.5831                 1.4816                 1.4276
 Frc consts  --      1.7852                 1.6767                 1.6190
 IR Inten    --      0.7946                17.2285                 3.0149

                     97                     98                     99
                      A                      A                      A
 Frequencies --   1396.2325              1413.4938              1417.7862
 Red. masses --      1.5531                 1.6818                 1.5326
 Frc consts  --      1.7839                 1.9797                 1.8151
 IR Inten    --      2.7781                 1.1850                 8.5191

                    100                    101                    102
                      A                      A                      A
 Frequencies --   1445.4528              1446.4082              1452.5264
 Red. masses --      1.0752                 1.0621                 1.0749
 Frc consts  --      1.3236                 1.3091                 1.3362
 IR Inten    --      0.2426                 4.7590                 2.3234

                    103                    104                    105
                      A                      A                      A
 Frequencies --   1454.0706              1456.1358              1458.6207
 Red. masses --      1.0791                 1.0685                 1.0856
 Frc consts  --      1.3443                 1.3348                 1.3609
 IR Inten    --      1.8506                 1.5060                 4.2532

                    106                    107                    108
                      A                      A                      A
 Frequencies --   1459.5594              1462.1302              1464.6001
 Red. masses --      1.0954                 1.0880                 1.1074
 Frc consts  --      1.3749                 1.3705                 1.3996
 IR Inten    --     10.1423                 7.0193                17.0850

                    109                    110                    111
                      A                      A                      A
 Frequencies --   1467.8145              1469.7718              1475.6699
 Red. masses --      1.0845                 1.0827                 1.0863
 Frc consts  --      1.3766                 1.3780                 1.3937
 IR Inten    --      2.5399                 0.4528                18.9183

                    112                    113                    114
                      A                      A                      A
 Frequencies --   1477.0695              1479.9735              1486.7030
 Red. masses --      1.0997                 1.0890                 1.0988
 Frc consts  --      1.4136                 1.4054                 1.4310
 IR Inten    --     10.0678                 2.8900                15.0107

                    115                    116                    117
                      A                      A                      A
 Frequencies --   1490.4768              2943.2569              2948.4170
 Red. masses --      1.1010                 1.0718                 1.0738
 Frc consts  --      1.4411                 5.4702                 5.5001
 IR Inten    --     26.0605                27.5636                75.3732

                    118                    119                    120
                      A                      A                      A
 Frequencies --   3023.8726              3032.3964              3039.8673
 Red. masses --      1.0899                 1.0618                 1.0379
 Frc consts  --      5.8715                 5.7527                 5.6508
 IR Inten    --    106.7911                28.2627                11.3294

                    121                    122                    123
                      A                      A                      A
 Frequencies --   3041.9282              3043.2665              3043.5600
 Red. masses --      1.0631                 1.0421                 1.0627
 Frc consts  --      5.7961                 5.6865                 5.8001
 IR Inten    --     31.3012                38.4854                21.1194

                    124                    125                    126
                      A                      A                      A
 Frequencies --   3044.7461              3047.5886              3057.9825
 Red. masses --      1.0595                 1.0627                 1.0661
 Frc consts  --      5.7868                 5.8153                 5.8740
 IR Inten    --     26.9866                15.4290                32.1086

                    127                    128                    129
                      A                      A                      A
 Frequencies --   3058.6435              3063.0723              3071.3043
 Red. masses --      1.0646                 1.0690                 1.0677
 Frc consts  --      5.8682                 5.9094                 5.9341
 IR Inten    --     55.7808                17.9272                49.1761

                    130                    131                    132
                      A                      A                      A
 Frequencies --   3073.6995              3080.9375              3088.6819
 Red. masses --      1.0703                 1.0990                 1.1010
 Frc consts  --      5.9577                 6.1463                 6.1886
 IR Inten    --     15.6411                45.7518                23.1806

                    133                    134                    135
                      A                      A                      A
 Frequencies --   3090.0648              3093.7833              3094.3245
 Red. masses --      1.1036                 1.1047                 1.1024
 Frc consts  --      6.2087                 6.2299                 6.2189
 IR Inten    --      7.7820                 1.5921                21.3716

                    136                    137                    138
                      A                      A                      A
 Frequencies --   3105.0557              3105.5864              3111.7347
 Red. masses --      1.1025                 1.0909                 1.0977
 Frc consts  --      6.2626                 6.1991                 6.2626
 IR Inten    --     59.8216                16.9954                40.9173

                    139                    140                    141
                      A                      A                      A
 Frequencies --   3114.3947              3117.7870              3120.5333
 Red. masses --      1.0990                 1.0959                 1.1001
 Frc consts  --      6.2804                 6.2762                 6.3116
 IR Inten    --     30.8489                38.1316                20.8264

                    142                    143                    144
                      A                      A                      A
 Frequencies --   3128.0232              3130.1427              3137.2474
 Red. masses --      1.1001                 1.1022                 1.0905
 Frc consts  --      6.3417                 6.3629                 6.3234
 IR Inten    --     14.3445                35.3308                27.2846

                    145                    146                    147
                      A                      A                      A
 Frequencies --   3140.4810              3141.8929              3159.4315
 Red. masses --      1.0952                 1.1028                 1.1038
 Frc consts  --      6.3640                 6.4140                 6.4916
 IR Inten    --     14.4687                22.1280                10.8101

 - Thermochemistry -
 -------------------
 Temperature   298.150 Kelvin.  Pressure   1.00000 Atm.
 Atom     1 has atomic number  6 and mass  12.00000

 Molecular mass:   261.26278 amu.
 Principal axes and moments of inertia in atomic units:
                           1         2         3
     Eigenvalues --  2493.885187662.945668508.70181
           X            1.00000   0.00167  -0.00122
           Y           -0.00167   1.00000   0.00085
           Z            0.00122  -0.00085   1.00000
 This molecule is an asymmetric top.
 Rotational symmetry number  1.
 Warning -- assumption of classical behavior for rotation
           may cause significant error
 Rotational temperatures (Kelvin)      0.03473     0.01130     0.01018
 Rotational constants (GHZ):           0.72367     0.23552     0.21211
 Zero-point vibrational energy    1240820.3 (Joules/Mol)
                                  296.56317 (Kcal/Mol)
 Warning -- explicit consideration of  29 degrees of freedom as
           vibrations may cause significant error
 Vibrational temperatures:     34.32    69.42    77.27   115.88   144.80
          (Kelvin)            182.35   234.78   259.51   263.07   319.88
                              327.63   343.33   369.48   385.87   413.17
                              420.37   430.00   453.96   470.01   486.02
                              508.69   545.72   555.13   565.40   653.58
                              674.81   711.03   759.34   789.67   913.16
                              976.92  1003.47  1016.11  1075.08  1104.96
                             1131.36  1146.86  1184.44  1206.66  1220.63
                             1229.38  1240.21  1268.47  1280.56  1329.41
                             1342.89  1351.88  1359.74  1387.31  1403.34
                             1419.70  1421.28  1431.27  1449.47  1467.46
                             1496.16  1503.57  1507.03  1555.25  1558.80
                             1572.14  1573.97  1599.52  1620.01  1646.96
                             1654.00  1664.12  1672.90  1704.25  1720.00
                             1723.80  1743.28  1749.49  1777.61  1785.41
                             1786.78  1796.65  1842.72  1851.77  1865.72
                             1871.80  1874.34  1886.76  1890.75  1910.76
                             1920.36  1925.90  1939.66  1950.12  1961.68
                             1966.06  1981.06  1986.59  1990.43  1994.07
                             1996.14  2008.87  2033.70  2039.88  2079.68
                             2081.06  2089.86  2092.08  2095.05  2098.63
                             2099.98  2103.68  2107.23  2111.86  2114.67
                             2123.16  2125.17  2129.35  2139.03  2144.46
                             4234.69  4242.11  4350.68  4362.94  4373.69
                             4376.66  4378.58  4379.00  4380.71  4384.80
                             4399.75  4400.71  4407.08  4418.92  4422.37
                             4432.78  4443.92  4445.91  4451.26  4452.04
                             4467.48  4468.25  4477.09  4480.92  4485.80
                             4489.75  4500.53  4503.58  4513.80  4518.45
                             4520.48  4545.72

 Zero-point correction=                           0.472603 (Hartree/Particle)
 Thermal correction to Energy=                    0.491876
 Thermal correction to Enthalpy=                  0.492820
 Thermal correction to Gibbs Free Energy=         0.426079
 Sum of electronic and zero-point Energies=           -744.823265
 Sum of electronic and thermal Energies=              -744.803993
 Sum of electronic and thermal Enthalpies=            -744.803049
 Sum of electronic and thermal Free Energies=         -744.869790

                     E (Thermal)             CV                S
                      KCal/Mol        Cal/Mol-Kelvin    Cal/Mol-Kelvin
 Total                  308.657             78.728            140.469
 Electronic               0.000              0.000              0.000
 Translational            0.889              2.981             42.581
 Rotational               0.889              2.981             33.452
 Vibrational            306.879             72.767             64.436
 Vibration     1          0.593              1.985              6.284
 Vibration     2          0.595              1.978              4.888
 Vibration     3          0.596              1.976              4.676
 Vibration     4          0.600              1.962              3.878
 Vibration     5          0.604              1.949              3.442
 Vibration     6          0.611              1.926              2.995
 Vibration     7          0.623              1.888              2.513
 Vibration     8          0.629              1.866              2.325
 Vibration     9          0.630              1.863              2.299
 Vibration    10          0.648              1.807              1.940
 Vibration    11          0.651              1.799              1.897
 Vibration    12          0.657              1.781              1.813
 Vibration    13          0.666              1.751              1.683
 Vibration    14          0.673              1.732              1.608
 Vibration    15          0.684              1.698              1.491
 Vibration    16          0.688              1.688              1.461
 Vibration    17          0.692              1.676              1.423
 Vibration    18          0.703              1.644              1.333
 Vibration    19          0.710              1.622              1.276
 Vibration    20          0.718              1.600              1.223
 Vibration    21          0.730              1.568              1.150
 Vibration    22          0.749              1.514              1.042
 Vibration    23          0.755              1.500              1.016
 Vibration    24          0.760              1.485              0.989
 Vibration    25          0.813              1.351              0.783
 Vibration    26          0.826              1.319              0.740
 Vibration    27          0.850              1.263              0.673
 Vibration    28          0.883              1.189              0.592
 Vibration    29          0.904              1.142              0.547

 Optimization completed.
    -- Stationary point found.
 Normal termination of Gaussian 16 at Thu Jan 23 18:47:21 2025.
 Gaussian 16:  ES64L-G16RevC.01  3-Jul-2019

 ----------------------------------------------------------------------
 #p def2tzvp pbe1pbe integral=ultrafinegrid geom=allcheck guess=read em
 =gd3bj
 ----------------------------------------------------------------------

 Structure from the checkpoint file:  "neutral.chk"
 -------
 neutral
 -------
 Charge =  0 Multiplicity = 1

                         Standard orientation:
 ---------------------------------------------------------------------
 Center     Atomic      Atomic             Coordinates (Angstroms)
 Number     Number       Type             X           Y           Z
 ---------------------------------------------------------------------
      1          6           0        0.188433    1.852960    1.789564
      2          6           0        0.251023    1.278046    0.368213
      3          6           0        0.619908    2.395011   -0.618274
      4          5           0        1.397512    0.180667    0.205462
      5          6           0        2.539670   -0.242689    1.207739
      6          6           0        3.793871    0.497570    0.676411
      7          6           0        4.171168    0.050255   -0.735248
      8          6           0        2.985093    0.033150   -1.699285
      9          6           0        1.742385   -0.659659   -1.087773
     10          6           0        2.121082   -2.026470   -0.484202
     11          6           0        2.632755   -1.761824    0.962776
     12          7           0       -0.995056    0.612111   -0.043406
     13          6           0       -1.165992   -0.671733    0.607440
     14          6           0       -1.939762   -1.718982   -0.204722
     15          6           0       -3.390100   -1.971257    0.217530
     16          6           0       -4.233149   -0.748731    0.559092
     17          6           0       -4.466462    0.273341   -0.546815
     18          6           0       -3.235119    0.985896   -1.115042
     19          6           0       -2.177162    1.450171   -0.101086
     20          1           0        1.152466    2.301939    2.075566
     21          1           0       -0.039117    1.073294    2.533350
     22          1           0       -0.579699    2.639111    1.877901
     23          1           0        0.542059    2.038755   -1.655689
     24          1           0        1.648376    2.749778   -0.445288
     25          1           0       -0.032373    3.277088   -0.506412
     26          1           0        2.395728    0.005818    2.269567
     27          1           0        3.615549    1.588286    0.690785
     28          1           0        4.644625    0.323804    1.358627
     29          1           0        4.973278    0.693060   -1.133302
     30          1           0        4.604938   -0.962237   -0.681991
     31          1           0        3.276014   -0.486267   -2.629512
     32          1           0        2.728890    1.063997   -1.996266
     33          1           0        0.948446   -0.730077   -1.845055
     34          1           0        1.236335   -2.682792   -0.462657
     35          1           0        2.872089   -2.553575   -1.097188
     36          1           0        2.002204   -2.292615    1.693941
     37          1           0        3.656970   -2.142798    1.116090
     38          1           0       -0.151525   -1.074625    0.788631
     39          1           0       -1.606487   -0.581009    1.626185
     40          1           0       -1.403968   -2.679750   -0.132762
     41          1           0       -1.873808   -1.430567   -1.263379
     42          1           0       -3.891200   -2.556840   -0.572965
     43          1           0       -3.384144   -2.623996    1.107945
     44          1           0       -5.217435   -1.101896    0.909592
     45          1           0       -3.789481   -0.238830    1.431121
     46          1           0       -5.015284   -0.202411   -1.378520
     47          1           0       -5.152632    1.038009   -0.142516
     48          1           0       -3.596518    1.866394   -1.670641
     49          1           0       -2.722111    0.364732   -1.863587
     50          1           0       -1.842293    2.451626   -0.401341
     51          1           0       -2.647921    1.586161    0.898397
 ---------------------------------------------------------------------

 SCF Done:  E(RPBE1PBE) =  -746.063313297     A.U. after   12 cycles

 The electronic state is 1-A.
 Alpha  occ. eigenvalues --  -14.36623 -10.24469 -10.23461 -10.23337 -10.21999
 Alpha  occ. eigenvalues --  -10.21595 -10.21429 -10.21300 -10.21280 -10.21269
 Alpha  occ. eigenvalues --  -10.21173 -10.21170 -10.21103 -10.21048 -10.20961
 Alpha  occ. eigenvalues --  -10.20229 -10.19517 -10.19174  -6.75470  -0.94755
 Alpha  occ. eigenvalues --   -0.85939  -0.83110  -0.79819  -0.78761  -0.77664
 Alpha  occ. eigenvalues --   -0.76198  -0.71786  -0.71038  -0.69797  -0.66777
 Alpha  occ. eigenvalues --   -0.65051  -0.63213  -0.60377  -0.57869  -0.56089
 Alpha  occ. eigenvalues --   -0.55193  -0.54875  -0.51005  -0.50343  -0.49873
 Alpha  occ. eigenvalues --   -0.48232  -0.47717  -0.46502  -0.45216  -0.43801
 Alpha  occ. eigenvalues --   -0.43723  -0.42802  -0.42475  -0.41595  -0.41071
 Alpha  occ. eigenvalues --   -0.40915  -0.39861  -0.39365  -0.38751  -0.38685
 Alpha  occ. eigenvalues --   -0.38371  -0.37713  -0.37450  -0.35554  -0.34918
 Alpha  occ. eigenvalues --   -0.34628  -0.34192  -0.33415  -0.32657  -0.32144
 Alpha  occ. eigenvalues --   -0.32070  -0.31928  -0.31777  -0.30899  -0.30499
 Alpha  occ. eigenvalues --   -0.27390  -0.26678  -0.21254
 Alpha virt. eigenvalues --   -0.01223   0.02973   0.04567   0.04930   0.05634
 Alpha virt. eigenvalues --    0.06085   0.07150   0.07293   0.07530   0.08668
 Alpha virt. eigenvalues --    0.08761   0.09358   0.09615   0.10280   0.10408

 Mulliken charges:
               1
     1  C   -0.403374
     2  C    0.333390
     3  C   -0.446708
     4  B   -0.778291
     5  C    0.064737
     6  C   -0.153710
     7  C   -0.211232
     8  C   -0.154152
     9  C    0.122031
    10  C   -0.237263
    11  C   -0.220731
    12  N   -0.131644
    13  C   -0.152078
    14  C   -0.208789
    15  C   -0.216497
    16  C   -0.141353
    17  C   -0.248160
    18  C   -0.134374
    19  C   -0.221265
    20  H    0.133964
    21  H    0.132168
    22  H    0.121899
    23  H    0.155803
    24  H    0.142358
    25  H    0.124332
    26  H    0.092775
    27  H    0.106202
    28  H    0.105211
    29  H    0.109172
    30  H    0.109182
    31  H    0.102581
    32  H    0.110531
    33  H    0.086987
    34  H    0.122488
    35  H    0.101207
    36  H    0.116060
    37  H    0.104206
    38  H    0.132967
    39  H    0.098413
    40  H    0.106957
    41  H    0.112464
    42  H    0.097200
    43  H    0.103972
    44  H    0.108406
    45  H    0.095848
    46  H    0.095040
    47  H    0.105610
    48  H    0.105802
    49  H    0.096238
    50  H    0.104298
    51  H    0.099123
 Sum of Mulliken charges =  -0.00000

 Dipole moment (field-independent basis, Debye):
    X=             -0.1864    Y=              0.1991    Z=              0.1903  Tot=              0.3326
 Quadrupole moment (field-independent basis, Debye-Ang):
   XX=           -120.8954   YY=           -121.5574   ZZ=           -123.8786
   XY=              1.0371   XZ=             -0.3931   YZ=             -0.7570

 Normal termination of Gaussian 16 at Thu Jan 23 18:53:54 2025.
