 Gaussian 16, Revision C.01,

 -------------------------------------------------------------------
 #p opt freq=noraman def2svp pbe1pbe em=gd3bj integral=ultrafinegrid
 -------------------------------------------------------------------

 ------------
 with_hydride
 ------------
 Symbolic Z-matrix:
 Charge = -1 Multiplicity = 1

 SCF Done:  E(RPBE1PBE) =  -745.118614822     A.U. after   21 cycles
 SCF Done:  E(RPBE1PBE) =  -745.437759394     A.U. after   16 cycles
 SCF Done:  E(RPBE1PBE) =  -745.639230249     A.U. after   16 cycles
 SCF Done:  E(RPBE1PBE) =  -745.662583734     A.U. after   17 cycles
 SCF Done:  E(RPBE1PBE) =  -745.729373430     A.U. after   15 cycles
 SCF Done:  E(RPBE1PBE) =  -745.783962934     A.U. after   14 cycles
 SCF Done:  E(RPBE1PBE) =  -745.831178102     A.U. after   13 cycles
 SCF Done:  E(RPBE1PBE) =  -745.890923559     A.U. after   13 cycles
 SCF Done:  E(RPBE1PBE) =  -745.910994348     A.U. after   11 cycles
 SCF Done:  E(RPBE1PBE) =  -745.917370060     A.U. after   11 cycles
 SCF Done:  E(RPBE1PBE) =  -745.921845095     A.U. after   11 cycles
 SCF Done:  E(RPBE1PBE) =  -745.922036384     A.U. after    9 cycles
 SCF Done:  E(RPBE1PBE) =  -745.922094984     A.U. after    9 cycles
 SCF Done:  E(RPBE1PBE) =  -745.922116287     A.U. after    9 cycles
 SCF Done:  E(RPBE1PBE) =  -745.922135002     A.U. after    9 cycles
 SCF Done:  E(RPBE1PBE) =  -745.922141798     A.U. after    9 cycles
 SCF Done:  E(RPBE1PBE) =  -745.922142852     A.U. after    7 cycles
 SCF Done:  E(RPBE1PBE) =  -745.922143016     A.U. after    6 cycles
 Optimization completed.
    -- Stationary point found.
 Normal termination of Gaussian 16 at Fri Jan 24 17:15:49 2025.

 ---------------------------------------------------------------------
 #P Geom=AllCheck Guess=TCheck SCRF=Check GenChk RPBE1PBE/def2SVP Freq
 ---------------------------------------------------------------------

 Structure from the checkpoint file:  "with_hydride.chk"
 ------------
 with_hydride
 ------------
 Charge = -1 Multiplicity = 1

 SCF Done:  E(RPBE1PBE) =  -745.922143016     A.U. after    1 cycles

  Exact polarizability:     239.872      -1.197     197.011      -1.271      -1.393     185.865
 Approx polarizability:     290.038      -2.484     281.171      -3.640      -0.731     279.554

                      1                      2                      3
                      A                      A                      A
 Frequencies --     29.6533                48.9150                71.5420
 Red. masses --      3.3263                 3.2184                 3.3908
 Frc consts  --      0.0017                 0.0045                 0.0102
 IR Inten    --      0.2479                 0.2415                 0.9320

                      4                      5                      6
                      A                      A                      A
 Frequencies --     92.2571               124.5110               132.1848
 Red. masses --      3.2007                 2.1511                 2.4995
 Frc consts  --      0.0161                 0.0196                 0.0257
 IR Inten    --      0.0465                 0.0646                 0.2749

                      7                      8                      9
                      A                      A                      A
 Frequencies --    179.4973               205.8724               214.3626
 Red. masses --      2.8355                 3.2199                 1.9913
 Frc consts  --      0.0538                 0.0804                 0.0539
 IR Inten    --      0.5115                 2.5081                 0.4469

                     10                     11                     12
                      A                      A                      A
 Frequencies --    227.0985               241.6024               254.1316
 Red. masses --      2.3220                 1.6336                 2.5310
 Frc consts  --      0.0706                 0.0562                 0.0963
 IR Inten    --      0.5897                 0.6211                 0.9775

                     13                     14                     15
                      A                      A                      A
 Frequencies --    263.1903               273.4644               289.7011
 Red. masses --      2.3563                 1.4868                 2.2376
 Frc consts  --      0.0962                 0.0655                 0.1106
 IR Inten    --      0.4485                 0.3646                 0.3717

                     16                     17                     18
                      A                      A                      A
 Frequencies --    305.7997               318.2776               336.1660
 Red. masses --      1.6323                 2.1795                 2.5158
 Frc consts  --      0.0899                 0.1301                 0.1675
 IR Inten    --      0.0410                 0.2042                 0.5863

                     19                     20                     21
                      A                      A                      A
 Frequencies --    346.3018               360.9183               377.7131
 Red. masses --      2.2212                 1.8911                 1.8366
 Frc consts  --      0.1569                 0.1451                 0.1544
 IR Inten    --      1.1553                 0.7859                 2.7031

                     22                     23                     24
                      A                      A                      A
 Frequencies --    409.8961               413.7721               436.0611
 Red. masses --      2.0421                 3.0553                 1.8310
 Frc consts  --      0.2022                 0.3082                 0.2051
 IR Inten    --      0.5317                 0.2467                 2.8525

                     25                     26                     27
                      A                      A                      A
 Frequencies --    455.7234               469.3264               513.7340
 Red. masses --      2.6140                 1.8653                 2.3695
 Frc consts  --      0.3199                 0.2421                 0.3685
 IR Inten    --      3.1653                 0.3620                 1.0583

                     28                     29                     30
                      A                      A                      A
 Frequencies --    520.7160               547.7204               607.1327
 Red. masses --      2.6465                 1.9692                 2.4317
 Frc consts  --      0.4228                 0.3481                 0.5281
 IR Inten    --      2.4360                 1.3159                 2.3146

                     31                     32                     33
                      A                      A                      A
 Frequencies --    684.8485               694.9124               699.6774
 Red. masses --      2.1156                 3.1149                 1.7771
 Frc consts  --      0.5846                 0.8863                 0.5126
 IR Inten    --      1.3029                 1.2137                 2.9530

                     34                     35                     36
                      A                      A                      A
 Frequencies --    731.4763               769.7926               784.5815
 Red. masses --      3.1468                 1.6065                 1.4032
 Frc consts  --      0.9920                 0.5609                 0.5089
 IR Inten    --      0.0327                 1.2540                 1.3686

                     37                     38                     39
                      A                      A                      A
 Frequencies --    786.9910               806.9686               819.0353
 Red. masses --      2.5872                 2.3083                 2.1482
 Frc consts  --      0.9441                 0.8856                 0.8490
 IR Inten    --      3.4663                 0.1796                 8.0713

                     40                     41                     42
                      A                      A                      A
 Frequencies --    844.9828               851.4631               861.0034
 Red. masses --      2.3525                 2.2159                 2.1260
 Frc consts  --      0.9896                 0.9465                 0.9286
 IR Inten    --      3.6308                 0.4875                 2.5078

                     43                     44                     45
                      A                      A                      A
 Frequencies --    874.2263               884.5004               897.4842
 Red. masses --      1.3690                 2.4123                 1.8351
 Frc consts  --      0.6165                 1.1119                 0.8709
 IR Inten    --      2.4164                 0.9808                 0.9905

                     46                     47                     48
                      A                      A                      A
 Frequencies --    902.3448               914.0115               940.4433
 Red. masses --      2.1606                 1.5646                 2.2582
 Frc consts  --      1.0365                 0.7701                 1.1767
 IR Inten    --      3.6811                 2.0918                 2.4784

                     49                     50                     51
                      A                      A                      A
 Frequencies --    945.1049               951.9395               959.8611
 Red. masses --      1.8166                 1.9252                 1.6929
 Frc consts  --      0.9560                 1.0279                 0.9190
 IR Inten    --      1.4371                 6.2969                 1.2635

                     52                     53                     54
                      A                      A                      A
 Frequencies --    986.5790               993.2961               996.8868
 Red. masses --      1.7483                 1.5568                 1.3928
 Frc consts  --      1.0026                 0.9050                 0.8155
 IR Inten    --      4.6708                 0.2821                 7.7396

                     55                     56                     57
                      A                      A                      A
 Frequencies --   1005.7772              1020.5258              1030.8839
 Red. masses --      1.8769                 1.6418                 1.9688
 Frc consts  --      1.1186                 1.0074                 1.2327
 IR Inten    --     13.9898                 5.3042                 0.2477

                     58                     59                     60
                      A                      A                      A
 Frequencies --   1041.8576              1045.1251              1049.8864
 Red. masses --      2.1593                 1.5285                 1.6378
 Frc consts  --      1.3809                 0.9837                 1.0636
 IR Inten    --     36.5134                 1.8097                18.1519

                     61                     62                     63
                      A                      A                      A
 Frequencies --   1089.6768              1092.4575              1100.2714
 Red. masses --      2.1076                 1.5577                 1.1919
 Frc consts  --      1.4745                 1.0953                 0.8501
 IR Inten    --      2.8208                25.6157                 8.0543

                     64                     65                     66
                      A                      A                      A
 Frequencies --   1113.9707              1116.7398              1122.3586
 Red. masses --      1.3365                 1.2689                 1.9147
 Frc consts  --      0.9771                 0.9323                 1.4210
 IR Inten    --     13.8705                 1.8047                22.0500

                     67                     68                     69
                      A                      A                      A
 Frequencies --   1135.8440              1141.3676              1149.7128
 Red. masses --      1.8939                 1.4942                 1.6598
 Frc consts  --      1.4396                 1.1469                 1.2926
 IR Inten    --      2.0189                 1.5663                48.1754

                     70                     71                     72
                      A                      A                      A
 Frequencies --   1153.4591              1179.5956              1188.1027
 Red. masses --      1.3060                 2.0760                 1.7058
 Frc consts  --      1.0238                 1.7019                 1.4187
 IR Inten    --     13.1294                43.1834                26.0238

                     73                     74                     75
                      A                      A                      A
 Frequencies --   1192.1785              1198.5528              1207.8113
 Red. masses --      1.5447                 1.6677                 2.1360
 Frc consts  --      1.2935                 1.4115                 1.8359
 IR Inten    --      2.9470                 0.2190                25.3810

                     76                     77                     78
                      A                      A                      A
 Frequencies --   1213.3017              1234.0034              1236.1408
 Red. masses --      1.9439                 1.2900                 1.7063
 Frc consts  --      1.6860                 1.1574                 1.5362
 IR Inten    --     14.2841                 0.9516                 2.0549

                     79                     80                     81
                      A                      A                      A
 Frequencies --   1251.7146              1253.2641              1266.1152
 Red. masses --      1.3489                 1.2405                 1.5044
 Frc consts  --      1.2452                 1.1480                 1.4209
 IR Inten    --      0.1900                 0.2410                 0.3943

                     82                     83                     84
                      A                      A                      A
 Frequencies --   1289.4247              1294.5290              1300.1473
 Red. masses --      1.5436                 1.2985                 1.3831
 Frc consts  --      1.5121                 1.2821                 1.3775
 IR Inten    --     12.4983                 2.9407                 1.0998

                     85                     86                     87
                      A                      A                      A
 Frequencies --   1302.6578              1314.1227              1321.7414
 Red. masses --      1.6099                 1.7703                 1.4637
 Frc consts  --      1.6095                 1.8013                 1.5066
 IR Inten    --      0.2284                17.0574                 1.5995

                     88                     89                     90
                      A                      A                      A
 Frequencies --   1325.4578              1326.3159              1334.5545
 Red. masses --      1.4174                 1.3263                 1.3154
 Frc consts  --      1.4671                 1.3746                 1.3803
 IR Inten    --      0.4852                 0.9567                 1.8865

                     91                     92                     93
                      A                      A                      A
 Frequencies --   1345.9019              1354.2347              1360.9001
 Red. masses --      1.4203                 1.3690                 1.3359
 Frc consts  --      1.5159                 1.4792                 1.4577
 IR Inten    --      0.7457                 7.9792                 5.6378

                     94                     95                     96
                      A                      A                      A
 Frequencies --   1364.6168              1367.3042              1375.9701
 Red. masses --      1.5164                 1.3395                 1.4708
 Frc consts  --      1.6637                 1.4754                 1.6407
 IR Inten    --      5.3008                11.0790                 0.2337

                     97                     98                     99
                      A                      A                      A
 Frequencies --   1378.8985              1381.8535              1388.3155
 Red. masses --      1.5193                 1.3679                 1.5547
 Frc consts  --      1.7020                 1.5390                 1.7655
 IR Inten    --      0.7913                 8.8430                 4.5452

                    100                    101                    102
                      A                      A                      A
 Frequencies --   1408.5358              1419.3534              1438.7217
 Red. masses --      1.6860                 1.4628                 1.0784
 Frc consts  --      1.9708                 1.7363                 1.3152
 IR Inten    --      0.4526                 2.2906                 3.6632

                    103                    104                    105
                      A                      A                      A
 Frequencies --   1441.2085              1443.1896              1446.0785
 Red. masses --      1.0666                 1.0762                 1.0787
 Frc consts  --      1.3053                 1.3206                 1.3290
 IR Inten    --      1.7433                 0.2345                 3.6124

                    106                    107                    108
                      A                      A                      A
 Frequencies --   1449.5092              1451.7054              1456.2835
 Red. masses --      1.0761                 1.0767                 1.0791
 Frc consts  --      1.3321                 1.3369                 1.3483
 IR Inten    --      0.4276                 1.4815                 5.0534

                    109                    110                    111
                      A                      A                      A
 Frequencies --   1458.4221              1459.3616              1461.7110
 Red. masses --      1.1029                 1.0961                 1.1071
 Frc consts  --      1.3821                 1.3753                 1.3937
 IR Inten    --      3.2386                 1.4045                10.3636

                    112                    113                    114
                      A                      A                      A
 Frequencies --   1465.8640              1470.3449              1478.1353
 Red. masses --      1.0912                 1.0720                 1.0931
 Frc consts  --      1.3815                 1.3654                 1.4072
 IR Inten    --      2.8868                 6.0454                 2.7587

                    115                    116                    117
                      A                      A                      A
 Frequencies --   1481.0415              1484.7180              1496.1035
 Red. masses --      1.0867                 1.0943                 1.0760
 Frc consts  --      1.4045                 1.4213                 1.4190
 IR Inten    --      2.9467                10.4220                 7.9827

                    118                    119                    120
                      A                      A                      A
 Frequencies --   2214.2572              2886.6793              2893.7474
 Red. masses --      1.0832                 1.0756                 1.0730
 Frc consts  --      3.1290                 5.2810                 5.2939
 IR Inten    --    270.1388                29.1021               187.6268

                    121                    122                    123
                      A                      A                      A
 Frequencies --   2968.4271              2970.1050              2975.9134
 Red. masses --      1.0721                 1.0750                 1.0703
 Frc consts  --      5.5661                 5.5874                 5.5845
 IR Inten    --     84.2890                97.4745                53.5785

                    124                    125                    126
                      A                      A                      A
 Frequencies --   2989.6412              2995.1836              3002.1791
 Red. masses --      1.0487                 1.0706                 1.0539
 Frc consts  --      5.5225                 5.6588                 5.5965
 IR Inten    --     77.6769               235.1264                92.9561

                    127                    128                    129
                      A                      A                      A
 Frequencies --   3016.5335              3018.5912              3020.8713
 Red. masses --      1.0833                 1.0629                 1.0623
 Frc consts  --      5.8077                 5.7060                 5.7119
 IR Inten    --    120.0376                36.9998                32.6020

                    130                    131                    132
                      A                      A                      A
 Frequencies --   3024.9148              3044.0119              3051.0220
 Red. masses --      1.0680                 1.0685                 1.0717
 Frc consts  --      5.7576                 5.8333                 5.8777
 IR Inten    --    143.9191                76.4290                85.0595

                    133                    134                    135
                      A                      A                      A
 Frequencies --   3052.9667              3056.1666              3062.7526
 Red. masses --      1.0938                 1.0901                 1.0792
 Frc consts  --      6.0067                 5.9986                 5.9647
 IR Inten    --     16.0251                17.3676                60.3621

                    136                    137                    138
                      A                      A                      A
 Frequencies --   3064.2784              3065.2995              3070.1834
 Red. masses --      1.1001                 1.0959                 1.0924
 Frc consts  --      6.0859                 6.0666                 6.0669
 IR Inten    --      2.3018                33.4323                50.5332

                    139                    140                    141
                      A                      A                      A
 Frequencies --   3074.7019              3090.9125              3092.6609
 Red. masses --      1.0937                 1.0942                 1.0886
 Frc consts  --      6.0919                 6.1593                 6.1344
 IR Inten    --     64.7724                71.8770                44.8821

                    142                    143                    144
                      A                      A                      A
 Frequencies --   3100.3885              3103.8804              3115.4265
 Red. masses --      1.0980                 1.0844                 1.0853
 Frc consts  --      6.2186                 6.1551                 6.2064
 IR Inten    --     49.5564                72.1327                30.8199

                    145                    146                    147
                      A                      A                      A
 Frequencies --   3122.9136              3132.9887              3135.1736
 Red. masses --      1.0977                 1.1019                 1.0946
 Frc consts  --      6.3075                 6.3724                 6.3390
 IR Inten    --     22.0006                31.6056                22.6241

                    148                    149                    150
                      A                      A                      A
 Frequencies --   3153.9898              3155.9980              3165.9752
 Red. masses --      1.0881                 1.0852                 1.1016
 Frc consts  --      6.3773                 6.3686                 6.5058
 IR Inten    --     21.0890                24.8817                22.8776

 - Thermochemistry -
 -------------------
 Temperature   298.150 Kelvin.  Pressure   1.00000 Atm.
 Atom     1 has atomic number  6 and mass  12.00000

 Molecular mass:   262.27061 amu.
 Principal axes and moments of inertia in atomic units:
                           1         2         3
     Eigenvalues --  2566.261127908.383788533.58827
           X            1.00000   0.00126  -0.00182
           Y           -0.00127   1.00000  -0.00203
           Z            0.00182   0.00204   1.00000
 This molecule is an asymmetric top.
 Rotational symmetry number  1.
 Warning -- assumption of classical behavior for rotation
           may cause significant error
 Rotational temperatures (Kelvin)      0.03375     0.01095     0.01015
 Rotational constants (GHZ):           0.70326     0.22821     0.21149
 Zero-point vibrational energy    1260303.7 (Joules/Mol)
                                  301.21980 (Kcal/Mol)
 Warning -- explicit consideration of  30 degrees of freedom as
           vibrations may cause significant error
 Vibrational temperatures:     42.66    70.38   102.93   132.74   179.14
          (Kelvin)            190.18   258.26   296.20   308.42   326.74
                              347.61   365.64   378.67   393.45   416.82
                              439.98   457.93   483.67   498.25   519.28
                              543.44   589.75   595.33   627.39   655.68
                              675.26   739.15   749.19   788.05   873.53
                              985.34   999.82  1006.68  1052.43  1107.56
                             1128.84  1132.30  1161.05  1178.41  1215.74
                             1225.07  1238.79  1257.82  1272.60  1291.28
                             1298.27  1315.06  1353.09  1359.80  1369.63
                             1381.03  1419.47  1429.13  1434.30  1447.09
                             1468.31  1483.21  1499.00  1503.70  1510.55
                             1567.80  1571.80  1583.05  1602.76  1606.74
                             1614.82  1634.23  1642.17  1654.18  1659.57
                             1697.17  1709.41  1715.28  1724.45  1737.77
                             1745.67  1775.46  1778.53  1800.94  1803.17
                             1821.66  1855.19  1862.54  1870.62  1874.23
                             1890.73  1901.69  1907.04  1908.27  1920.13
                             1936.45  1948.44  1958.03  1963.38  1967.25
                             1979.71  1983.93  1988.18  1997.48  2026.57
                             2042.13  2070.00  2073.58  2076.43  2080.58
                             2085.52  2088.68  2095.27  2098.34  2099.70
                             2103.08  2109.05  2115.50  2126.71  2130.89
                             2136.18  2152.56  3185.82  4153.29  4163.46
                             4270.90  4273.32  4281.68  4301.43  4309.40
                             4319.47  4340.12  4343.08  4346.36  4352.18
                             4379.65  4389.74  4392.54  4397.14  4406.62
                             4408.81  4410.28  4417.31  4423.81  4447.13
                             4449.65  4460.77  4465.79  4482.40  4493.18
                             4507.67  4510.82  4537.89  4540.78  4555.13

 Zero-point correction=                           0.480024 (Hartree/Particle)
 Thermal correction to Energy=                    0.498885
 Thermal correction to Enthalpy=                  0.499829
 Thermal correction to Gibbs Free Energy=         0.434687
 Sum of electronic and zero-point Energies=           -745.442119
 Sum of electronic and thermal Energies=              -745.423258
 Sum of electronic and thermal Enthalpies=            -745.422314
 Sum of electronic and thermal Free Energies=         -745.487456

                     E (Thermal)             CV                S
                      KCal/Mol        Cal/Mol-Kelvin    Cal/Mol-Kelvin
 Total                  313.055             79.278            137.104
 Electronic               0.000              0.000              0.000
 Translational            0.889              2.981             42.592
 Rotational               0.889              2.981             33.515
 Vibrational            311.278             73.317             60.996
 Vibration     1          0.593              1.984              5.852
 Vibration     2          0.595              1.978              4.861
 Vibration     3          0.598              1.968              4.110
 Vibration     4          0.602              1.955              3.612
 Vibration     5          0.610              1.928              3.029
 Vibration     6          0.612              1.921              2.914
 Vibration     7          0.629              1.867              2.334
 Vibration     8          0.640              1.832              2.080
 Vibration     9          0.644              1.819              2.006
 Vibration    10          0.651              1.800              1.902
 Vibration    11          0.658              1.777              1.791
 Vibration    12          0.665              1.756              1.702
 Vibration    13          0.670              1.740              1.641
 Vibration    14          0.676              1.722              1.574
 Vibration    15          0.686              1.693              1.476
 Vibration    16          0.696              1.663              1.385
 Vibration    17          0.705              1.639              1.319
 Vibration    18          0.717              1.603              1.230
 Vibration    19          0.724              1.583              1.183
 Vibration    20          0.735              1.553              1.118
 Vibration    21          0.748              1.518              1.048
 Vibration    22          0.774              1.449              0.927
 Vibration    23          0.777              1.440              0.913
 Vibration    24          0.797              1.392              0.839
 Vibration    25          0.814              1.348              0.779
 Vibration    26          0.826              1.318              0.739
 Vibration    27          0.869              1.220              0.625
 Vibration    28          0.876              1.204              0.608
 Vibration    29          0.903              1.145              0.549
 Vibration    30          0.966              1.017              0.438

 Optimization completed.
    -- Stationary point found.
 Normal termination of Gaussian 16 at Fri Jan 24 17:27:45 2025.
 Gaussian 16:  ES64L-G16RevC.01  3-Jul-2019

 ----------------------------------------------------------------------
 #p def2tzvp pbe1pbe integral=ultrafinegrid geom=allcheck guess=read em
 =gd3bj
 ----------------------------------------------------------------------

 Structure from the checkpoint file:  "with_hydride.chk"
 ------------
 with_hydride
 ------------
 Charge = -1 Multiplicity = 1

                         Standard orientation:
 ---------------------------------------------------------------------
 Center     Atomic      Atomic             Coordinates (Angstroms)
 Number     Number       Type             X           Y           Z
 ---------------------------------------------------------------------
      1          6           0        0.081619    1.905538    1.907963
      2          6           0        0.285376    1.184647    0.563916
      3          6           0        0.682695    2.253595   -0.453744
      4          5           0        1.492062    0.032140    0.776931
      5          6           0        3.101284    0.438992    0.723599
      6          6           0        3.611596    0.877430   -0.658046
      7          6           0        3.347063   -0.162505   -1.752132
      8          6           0        1.968434   -0.821526   -1.671305
      9          6           0        1.616548   -1.258210   -0.245129
     10          6           0        2.787509   -2.009159    0.413444
     11          6           0        3.708532   -0.935235    1.063487
     12          7           0       -0.985468    0.532002    0.116646
     13          6           0       -1.361668   -0.622697    0.901724
     14          6           0       -2.065894   -1.740979    0.111790
     15          6           0       -3.580484   -1.883677    0.302274
     16          6           0       -4.398164   -0.598239    0.357752
     17          6           0       -4.380720    0.299089   -0.874476
     18          6           0       -3.025207    0.868733   -1.304531
     19          6           0       -2.099636    1.399108   -0.190534
     20          1           0        1.038947    2.318214    2.266109
     21          1           0       -0.271014    1.206562    2.682369
     22          1           0       -0.640431    2.744446    1.842010
     23          1           0        0.804478    1.838539   -1.465238
     24          1           0        1.638750    2.701440   -0.151525
     25          1           0       -0.033603    3.095307   -0.520101
     26          1           0        3.420298    1.192407    1.469229
     27          1           0        3.158750    1.836360   -0.950174
     28          1           0        4.705360    1.066354   -0.625140
     29          1           0        3.504271    0.286495   -2.750852
     30          1           0        4.109461   -0.957979   -1.668441
     31          1           0        1.962459   -1.682578   -2.372450
     32          1           0        1.184981   -0.133684   -2.034239
     33          1           0        0.728607   -1.911070   -0.297535
     34          1           0        2.393757   -2.685742    1.189997
     35          1           0        3.347046   -2.650715   -0.297561
     36          1           0        3.726771   -1.068917    2.157240
     37          1           0        4.758121   -1.034744    0.718190
     38          1           0       -0.432344   -1.016151    1.328962
     39          1           0       -1.992933   -0.339144    1.778926
     40          1           0       -1.611228   -2.706727    0.389557
     41          1           0       -1.810831   -1.602620   -0.948623
     42          1           0       -3.984743   -2.542556   -0.488880
     43          1           0       -3.763536   -2.420224    1.251160
     44          1           0       -5.448597   -0.865582    0.571670
     45          1           0       -4.065262   -0.008003    1.227295
     46          1           0       -4.829067   -0.241283   -1.728984
     47          1           0       -5.065005    1.143078   -0.669945
     48          1           0       -3.230296    1.685918   -2.017865
     49          1           0       -2.445919    0.127053   -1.873057
     50          1           0       -1.696007    2.359570   -0.530111
     51          1           0       -2.712858    1.646736    0.710549
     52          1           0        1.316295   -0.434902    1.929978
 ---------------------------------------------------------------------

 SCF Done:  E(RPBE1PBE) =  -746.693878190     A.U. after   12 cycles

 The electronic state is 1-A.
 Alpha  occ. eigenvalues --  -14.22754 -10.11860 -10.11544 -10.11383 -10.11337
 Alpha  occ. eigenvalues --  -10.10440 -10.09812 -10.09488 -10.07886 -10.07415
 Alpha  occ. eigenvalues --  -10.06599 -10.06491 -10.06302 -10.06222 -10.06004
 Alpha  occ. eigenvalues --  -10.05955 -10.03370 -10.02803  -6.52886  -0.80573
 Alpha  occ. eigenvalues --   -0.72496  -0.69997  -0.68219  -0.64803  -0.62556
 Alpha  occ. eigenvalues --   -0.60563  -0.60035  -0.59041  -0.55509  -0.51009
 Alpha  occ. eigenvalues --   -0.50776  -0.49818  -0.48712  -0.44808  -0.43070
 Alpha  occ. eigenvalues --   -0.41038  -0.39119  -0.38143  -0.37090  -0.36372
 Alpha  occ. eigenvalues --   -0.35098  -0.34325  -0.33735  -0.31973  -0.31464
 Alpha  occ. eigenvalues --   -0.30710  -0.30113  -0.28977  -0.28454  -0.27525
 Alpha  occ. eigenvalues --   -0.26829  -0.26688  -0.26474  -0.26243  -0.24937
 Alpha  occ. eigenvalues --   -0.23926  -0.23323  -0.22942  -0.22506  -0.22304
 Alpha  occ. eigenvalues --   -0.22209  -0.21635  -0.20871  -0.20136  -0.19380
 Alpha  occ. eigenvalues --   -0.19112  -0.17312  -0.16789  -0.16144  -0.15217
 Alpha  occ. eigenvalues --   -0.10981  -0.09303  -0.08356  -0.06989
 Alpha virt. eigenvalues --    0.13024   0.15490   0.15901   0.16086   0.17745
 Alpha virt. eigenvalues --    0.17934   0.18583   0.18963   0.19405   0.19856
 Alpha virt. eigenvalues --    0.20403   0.20746   0.21101   0.21623   0.21916

 Mulliken charges:
               1
     1  C   -0.364307
     2  C    0.205161
     3  C   -0.417280
     4  B   -0.760454
     5  C    0.003728
     6  C   -0.123372
     7  C   -0.190764
     8  C   -0.180035
     9  C    0.065548
    10  C   -0.144573
    11  C   -0.163149
    12  N   -0.122427
    13  C   -0.230628
    14  C   -0.175291
    15  C   -0.185851
    16  C   -0.127809
    17  C   -0.225859
    18  C   -0.114370
    19  C   -0.175248
    20  H    0.103582
    21  H    0.114866
    22  H    0.066953
    23  H    0.114838
    24  H    0.118621
    25  H    0.072161
    26  H    0.001881
    27  H    0.064894
    28  H    0.034358
    29  H    0.052853
    30  H    0.076265
    31  H    0.033901
    32  H    0.082114
    33  H    0.014216
    34  H    0.065229
    35  H    0.035605
    36  H    0.062863
    37  H    0.032636
    38  H    0.229730
    39  H    0.055738
    40  H    0.091438
    41  H    0.101930
    42  H    0.067182
    43  H    0.079554
    44  H    0.075060
    45  H    0.095345
    46  H    0.067999
    47  H    0.078857
    48  H    0.073668
    49  H    0.095294
    50  H    0.080899
    51  H    0.062885
    52  H    0.023565
 Sum of Mulliken charges =  -1.00000

 Dipole moment (field-independent basis, Debye):
    X=             -5.6170    Y=              0.2599    Z=             -1.6348  Tot=              5.8558
 Quadrupole moment (field-independent basis, Debye-Ang):
   XX=           -165.9635   YY=           -140.2169   ZZ=           -140.4737
   XY=              2.6564   XZ=             -1.9436   YZ=             -1.1545

 Normal termination of Gaussian 16 at Fri Jan 24 17:34:59 2025.
