 Gaussian 16, Revision C.01,

 -------------------------------------------------------------------
 #p opt freq=noraman def2svp pbe1pbe em=gd3bj integral=ultrafinegrid
 -------------------------------------------------------------------

 -----------
 with_proton
 -----------
 Symbolic Z-matrix:
 Charge =  1 Multiplicity = 1

 SCF Done:  E(RPBE1PBE) =  -745.669943597     A.U. after   13 cycles
 SCF Done:  E(RPBE1PBE) =  -745.691462768     A.U. after   11 cycles
 SCF Done:  E(RPBE1PBE) =  -745.698109119     A.U. after   12 cycles
 SCF Done:  E(RPBE1PBE) =  -745.699445599     A.U. after   11 cycles
 SCF Done:  E(RPBE1PBE) =  -745.698576578     A.U. after   12 cycles
 SCF Done:  E(RPBE1PBE) =  -745.699774032     A.U. after   11 cycles
 SCF Done:  E(RPBE1PBE) =  -745.699870914     A.U. after   10 cycles
 SCF Done:  E(RPBE1PBE) =  -745.699882304     A.U. after    9 cycles
 SCF Done:  E(RPBE1PBE) =  -745.699887995     A.U. after    7 cycles
 SCF Done:  E(RPBE1PBE) =  -745.699888936     A.U. after    7 cycles
 SCF Done:  E(RPBE1PBE) =  -745.699889133     A.U. after    6 cycles
 SCF Done:  E(RPBE1PBE) =  -745.699889174     A.U. after    6 cycles
 Optimization completed.
    -- Stationary point found.
 Normal termination of Gaussian 16 at Fri Jan 24 17:04:37 2025.

 ---------------------------------------------------------------------
 #P Geom=AllCheck Guess=TCheck SCRF=Check GenChk RPBE1PBE/def2SVP Freq
 ---------------------------------------------------------------------

 Structure from the checkpoint file:  "with_proton.chk"
 -----------
 with_proton
 -----------
 Charge =  1 Multiplicity = 1

 SCF Done:  E(RPBE1PBE) =  -745.699889174     A.U. after    1 cycles

  Exact polarizability:     219.721       0.764     180.266      -0.225      -1.259     166.449
 Approx polarizability:     265.585      -0.500     258.328      -0.783      -0.449     253.328

                      1                      2                      3
                      A                      A                      A
 Frequencies --     25.8773                47.8010                54.2254
 Red. masses --      3.4310                 3.1970                 3.5434
 Frc consts  --      0.0014                 0.0043                 0.0061
 IR Inten    --      0.1170                 0.3040                 0.6253

                      4                      5                      6
                      A                      A                      A
 Frequencies --     83.0237                99.6276               123.8781
 Red. masses --      3.1592                 3.1997                 1.9439
 Frc consts  --      0.0128                 0.0187                 0.0176
 IR Inten    --      0.0681                 1.6036                 0.5879

                      7                      8                      9
                      A                      A                      A
 Frequencies --    159.8775               168.4108               173.7840
 Red. masses --      2.5937                 1.9897                 2.6330
 Frc consts  --      0.0391                 0.0332                 0.0469
 IR Inten    --      0.3058                 0.1766                 1.8078

                     10                     11                     12
                      A                      A                      A
 Frequencies --    205.3118               225.8302               244.4018
 Red. masses --      2.9512                 1.6175                 2.9051
 Frc consts  --      0.0733                 0.0486                 0.1022
 IR Inten    --      0.5020                 0.2110                 1.4241

                     13                     14                     15
                      A                      A                      A
 Frequencies --    267.6774               272.8973               285.1658
 Red. masses --      1.9789                 1.2647                 1.3940
 Frc consts  --      0.0835                 0.0555                 0.0668
 IR Inten    --      0.2008                 0.3194                 0.0457

                     16                     17                     18
                      A                      A                      A
 Frequencies --    290.9559               294.9935               316.3549
 Red. masses --      1.9185                 2.3663                 2.1630
 Frc consts  --      0.0957                 0.1213                 0.1275
 IR Inten    --      0.2893                 1.1262                 0.3361

                     19                     20                     21
                      A                      A                      A
 Frequencies --    318.7352               345.0760               349.6803
 Red. masses --      2.4156                 2.5779                 2.0918
 Frc consts  --      0.1446                 0.1809                 0.1507
 IR Inten    --      1.9969                 0.1700                 0.5404

                     22                     23                     24
                      A                      A                      A
 Frequencies --    379.0906               385.7491               402.6235
 Red. masses --      2.1379                 3.2136                 2.0116
 Frc consts  --      0.1810                 0.2817                 0.1921
 IR Inten    --      0.5560                 0.6858                 0.8631

                     25                     26                     27
                      A                      A                      A
 Frequencies --    454.0751               473.0487               495.8304
 Red. masses --      2.0577                 2.3034                 2.4781
 Frc consts  --      0.2500                 0.3037                 0.3590
 IR Inten    --      0.2961                 0.1233                 3.8297

                     28                     29                     30
                      A                      A                      A
 Frequencies --    525.9407               556.8698               640.6184
 Red. masses --      2.4092                 2.0386                 2.2157
 Frc consts  --      0.3926                 0.3725                 0.5357
 IR Inten    --      0.6761                 1.4580                 1.1294

                     31                     32                     33
                      A                      A                      A
 Frequencies --    688.6403               692.2351               700.6865
 Red. masses --      4.3702                 2.9328                 1.8599
 Frc consts  --      1.2211                 0.8280                 0.5380
 IR Inten    --      2.4632                 3.8414                 4.4339

                     34                     35                     36
                      A                      A                      A
 Frequencies --    746.7465               765.1571               774.9284
 Red. masses --      2.3344                 1.6119                 1.3711
 Frc consts  --      0.7670                 0.5560                 0.4851
 IR Inten    --      0.3288                 5.9190                12.1358

                     37                     38                     39
                      A                      A                      A
 Frequencies --    791.7395               834.8931               837.8469
 Red. masses --      2.4890                 2.3321                 2.4973
 Frc consts  --      0.9193                 0.9578                 1.0329
 IR Inten    --      1.4260                 5.9600                 0.5743

                     40                     41                     42
                      A                      A                      A
 Frequencies --    846.0138               854.7328               859.1538
 Red. masses --      2.4138                 2.1878                 1.4561
 Frc consts  --      1.0179                 0.9417                 0.6333
 IR Inten    --      2.8847                 2.8055                 0.9136

                     43                     44                     45
                      A                      A                      A
 Frequencies --    862.7834               887.5602               915.3940
 Red. masses --      2.0999                 2.4500                 1.9040
 Frc consts  --      0.9210                 1.1371                 0.9400
 IR Inten    --      4.8558                 2.2471                 0.6738

                     46                     47                     48
                      A                      A                      A
 Frequencies --    926.7084               941.7246               949.7474
 Red. masses --      2.4885                 2.4012                 1.4138
 Frc consts  --      1.2591                 1.2547                 0.7513
 IR Inten    --     18.0377                 2.5270                 1.0994

                     49                     50                     51
                      A                      A                      A
 Frequencies --    970.8844               973.9446               977.3791
 Red. masses --      1.7067                 1.7554                 1.6730
 Frc consts  --      0.9479                 0.9811                 0.9416
 IR Inten    --      3.6909                 4.8473                 3.1506

                     52                     53                     54
                      A                      A                      A
 Frequencies --    980.6626               990.2900              1011.5463
 Red. masses --      1.8987                 1.6433                 1.8809
 Frc consts  --      1.0759                 0.9495                 1.1340
 IR Inten    --      0.1715                 8.5107                 9.2742

                     55                     56                     57
                      A                      A                      A
 Frequencies --   1013.9579              1027.6063              1039.6889
 Red. masses --      1.9532                 1.6546                 2.1588
 Frc consts  --      1.1831                 1.0294                 1.3749
 IR Inten    --      3.6365                35.1054                 6.6914

                     58                     59                     60
                      A                      A                      A
 Frequencies --   1049.9377              1060.1984              1079.9901
 Red. masses --      1.5698                 2.1903                 2.3728
 Frc consts  --      1.0196                 1.4505                 1.6306
 IR Inten    --      0.4772                13.9289                10.1382

                     61                     62                     63
                      A                      A                      A
 Frequencies --   1087.9789              1094.3147              1104.7907
 Red. masses --      1.8293                 1.4974                 1.5287
 Frc consts  --      1.2757                 1.0565                 1.0993
 IR Inten    --      6.2322                12.1906                 3.9720

                     64                     65                     66
                      A                      A                      A
 Frequencies --   1116.5463              1129.8624              1145.6357
 Red. masses --      2.1456                 1.4709                 1.8329
 Frc consts  --      1.5760                 1.1063                 1.4174
 IR Inten    --      1.4188                10.3114                 3.5529

                     67                     68                     69
                      A                      A                      A
 Frequencies --   1150.3495              1158.2809              1165.2164
 Red. masses --      1.3414                 1.6657                 1.3863
 Frc consts  --      1.0459                 1.3167                 1.1090
 IR Inten    --      1.1192                28.9022                 4.1067

                     70                     71                     72
                      A                      A                      A
 Frequencies --   1175.7272              1189.5259              1198.4122
 Red. masses --      1.4863                 1.7883                 1.8673
 Frc consts  --      1.2105                 1.4909                 1.5801
 IR Inten    --      9.9303                 7.2865                 7.4587

                     73                     74                     75
                      A                      A                      A
 Frequencies --   1211.4714              1222.0207              1236.2491
 Red. masses --      1.6404                 1.4430                 1.3007
 Frc consts  --      1.4185                 1.2696                 1.1712
 IR Inten    --      6.1272                 3.6915                 1.3056

                     76                     77                     78
                      A                      A                      A
 Frequencies --   1238.0598              1255.3686              1256.8487
 Red. masses --      1.6560                 1.2863                 1.4428
 Frc consts  --      1.4955                 1.1944                 1.3428
 IR Inten    --     10.5459                 0.4668                 7.2743

                     79                     80                     81
                      A                      A                      A
 Frequencies --   1280.3298              1283.5161              1298.3943
 Red. masses --      1.5024                 1.5832                 1.3486
 Frc consts  --      1.4510                 1.5367                 1.3395
 IR Inten    --      4.3268                 4.9856                 5.2249

                     82                     83                     84
                      A                      A                      A
 Frequencies --   1305.4117              1307.7251              1312.9864
 Red. masses --      1.3401                 1.3388                 1.1162
 Frc consts  --      1.3455                 1.3490                 1.1337
 IR Inten    --     27.9102                 7.9673                 4.0718

                     85                     86                     87
                      A                      A                      A
 Frequencies --   1315.6495              1328.8523              1346.1345
 Red. masses --      1.4192                 1.2971                 1.2631
 Frc consts  --      1.4474                 1.3495                 1.3485
 IR Inten    --      6.7727                 4.5408                 0.1479

                     88                     89                     90
                      A                      A                      A
 Frequencies --   1348.4777              1354.5608              1365.3891
 Red. masses --      1.4699                 1.5864                 1.2421
 Frc consts  --      1.5748                 1.7149                 1.3644
 IR Inten    --     28.9840                 3.9754                13.9062

                     91                     92                     93
                      A                      A                      A
 Frequencies --   1375.8902              1377.6341              1386.5946
 Red. masses --      1.2980                 1.4020                 1.5754
 Frc consts  --      1.4477                 1.5677                 1.7845
 IR Inten    --      4.7429                26.9372                11.6598

                     94                     95                     96
                      A                      A                      A
 Frequencies --   1388.0944              1392.8157              1394.5337
 Red. masses --      1.6100                 1.5799                 1.3768
 Frc consts  --      1.8277                 1.8058                 1.5775
 IR Inten    --      0.2497                 1.5519                15.3192

                     97                     98                     99
                      A                      A                      A
 Frequencies --   1400.8520              1411.7381              1416.8456
 Red. masses --      1.5059                 1.3283                 1.6280
 Frc consts  --      1.7412                 1.5597                 1.9255
 IR Inten    --      3.1932                18.9324                 1.1458

                    100                    101                    102
                      A                      A                      A
 Frequencies --   1419.3164              1424.7480              1445.6182
 Red. masses --      1.3151                 1.3066                 1.0848
 Frc consts  --      1.5609                 1.5627                 1.3356
 IR Inten    --     17.6932                 6.4144                 6.0413

                    103                    104                    105
                      A                      A                      A
 Frequencies --   1447.0105              1453.1807              1457.0288
 Red. masses --      1.0779                 1.0862                 1.0789
 Frc consts  --      1.3298                 1.3515                 1.3495
 IR Inten    --      0.7890                 9.1031                 1.6269

                    106                    107                    108
                      A                      A                      A
 Frequencies --   1457.9306              1460.1414              1461.4480
 Red. masses --      1.0775                 1.0863                 1.0901
 Frc consts  --      1.3494                 1.3646                 1.3718
 IR Inten    --      8.2433                 5.4495                 5.8388

                    109                    110                    111
                      A                      A                      A
 Frequencies --   1462.9413              1464.9865              1467.1938
 Red. masses --      1.0842                 1.0846                 1.0784
 Frc consts  --      1.3671                 1.3715                 1.3678
 IR Inten    --     18.6402                12.4428                 2.4324

                    112                    113                    114
                      A                      A                      A
 Frequencies --   1471.6394              1477.7338              1478.9440
 Red. masses --      1.0950                 1.0796                 1.0928
 Frc consts  --      1.3972                 1.3891                 1.4083
 IR Inten    --      5.4436                20.3466                13.4989

                    115                    116                    117
                      A                      A                      A
 Frequencies --   1486.0298              1489.0558              1490.1626
 Red. masses --      1.0929                 1.0895                 1.0853
 Frc consts  --      1.4220                 1.4233                 1.4200
 IR Inten    --     38.1886                 9.4371                39.2140

                    118                    119                    120
                      A                      A                      A
 Frequencies --   3042.3486              3046.7896              3046.8128
 Red. masses --      1.0758                 1.0696                 1.0672
 Frc consts  --      5.8670                 5.8500                 5.8370
 IR Inten    --     20.4099                 6.3147                40.8017

                    121                    122                    123
                      A                      A                      A
 Frequencies --   3052.0859              3054.6577              3065.9208
 Red. masses --      1.0633                 1.0462                 1.0641
 Frc consts  --      5.8356                 5.7516                 5.8935
 IR Inten    --     25.1245                25.6553                29.6336

                    124                    125                    126
                      A                      A                      A
 Frequencies --   3067.3519              3070.3643              3071.1940
 Red. masses --      1.0404                 1.0648                 1.0638
 Frc consts  --      5.7671                 5.9141                 5.9120
 IR Inten    --      9.2274                12.0762                12.4401

                    127                    128                    129
                      A                      A                      A
 Frequencies --   3073.1618              3076.4748              3078.6861
 Red. masses --      1.0694                 1.0649                 1.0680
 Frc consts  --      5.9505                 5.9381                 5.9643
 IR Inten    --      0.9858                24.5116                 4.5560

                    130                    131                    132
                      A                      A                      A
 Frequencies --   3085.4509              3102.7885              3103.3925
 Red. masses --      1.0662                 1.0665                 1.1018
 Frc consts  --      5.9803                 6.0495                 6.2521
 IR Inten    --     15.4030                13.8793                 7.8686

                    133                    134                    135
                      A                      A                      A
 Frequencies --   3104.6365              3111.6169              3116.5407
 Red. masses --      1.0981                 1.1049                 1.0901
 Frc consts  --      6.2362                 6.3028                 6.2385
 IR Inten    --     25.3821                 3.1605                11.4559

                    136                    137                    138
                      A                      A                      A
 Frequencies --   3117.1016              3119.9493              3123.2651
 Red. masses --      1.0947                 1.0992                 1.0992
 Frc consts  --      6.2669                 6.3042                 6.3175
 IR Inten    --      8.5583                 2.7301                16.1516

                    139                    140                    141
                      A                      A                      A
 Frequencies --   3126.2320              3129.1500              3131.7890
 Red. masses --      1.0801                 1.1050                 1.0953
 Frc consts  --      6.2194                 6.3746                 6.3294
 IR Inten    --      2.0343                28.3393                10.0844

                    142                    143                    144
                      A                      A                      A
 Frequencies --   3132.9070              3136.7312              3148.3692
 Red. masses --      1.1042                 1.0982                 1.1043
 Frc consts  --      6.3853                 6.3664                 6.4494
 IR Inten    --     13.9429                 9.8203                 5.4982

                    145                    146                    147
                      A                      A                      A
 Frequencies --   3159.3220              3161.8632              3171.8898
 Red. masses --      1.1024                 1.1028                 1.1048
 Frc consts  --      6.4828                 6.4956                 6.5491
 IR Inten    --      1.9674                 9.3867                 1.6157

                    148                    149                    150
                      A                      A                      A
 Frequencies --   3180.4676              3199.3340              3442.9783
 Red. masses --      1.1025                 1.1053                 1.0764
 Frc consts  --      6.5704                 6.6655                 7.5179
 IR Inten    --      3.0597                 0.5629                27.3478

 - Thermochemistry -
 -------------------
 Temperature   298.150 Kelvin.  Pressure   1.00000 Atm.
 Atom     1 has atomic number  6 and mass  12.00000

 Molecular mass:   262.27061 amu.
 Principal axes and moments of inertia in atomic units:
                           1         2         3
     Eigenvalues --  2489.115067964.025698680.74283
           X            1.00000   0.00121  -0.00125
           Y           -0.00121   1.00000   0.00094
           Z            0.00125  -0.00094   1.00000
 This molecule is an asymmetric top.
 Rotational symmetry number  1.
 Warning -- assumption of classical behavior for rotation
           may cause significant error
 Rotational temperatures (Kelvin)      0.03480     0.01088     0.00998
 Rotational constants (GHZ):           0.72505     0.22661     0.20790
 Zero-point vibrational energy    1282492.7 (Joules/Mol)
                                  306.52310 (Kcal/Mol)
 Warning -- explicit consideration of  29 degrees of freedom as
           vibrations may cause significant error
 Vibrational temperatures:     37.23    68.78    78.02   119.45   143.34
          (Kelvin)            178.23   230.03   242.31   250.04   295.40
                              324.92   351.64   385.13   392.64   410.29
                              418.62   424.43   455.16   458.59   496.49
                              503.11   545.43   555.01   579.29   653.31
                              680.61   713.39   756.71   801.21   921.71
                              990.80   995.97  1008.13  1074.40  1100.89
                             1114.95  1139.14  1201.23  1205.47  1217.23
                             1229.77  1236.13  1241.35  1277.00  1317.05
                             1333.33  1354.93  1366.47  1396.89  1401.29
                             1406.23  1410.95  1424.81  1455.39  1458.86
                             1478.50  1495.88  1510.63  1525.39  1553.86
                             1565.36  1574.47  1589.55  1606.46  1625.62
                             1648.31  1655.10  1666.51  1676.49  1691.61
                             1711.46  1724.25  1743.04  1758.22  1778.69
                             1781.29  1806.20  1808.32  1842.11  1846.69
                             1868.10  1878.20  1881.52  1889.09  1892.93
                             1911.92  1936.79  1940.16  1948.91  1964.49
                             1979.60  1982.11  1995.00  1997.16  2003.95
                             2006.42  2015.51  2031.18  2038.52  2042.08
                             2049.89  2079.92  2081.93  2090.80  2096.34
                             2097.64  2100.82  2102.70  2104.85  2107.79
                             2110.96  2117.36  2126.13  2127.87  2138.07
                             2142.42  2144.01  4377.26  4383.65  4383.68
                             4391.27  4394.97  4411.18  4413.24  4417.57
                             4418.76  4421.59  4426.36  4429.54  4439.28
                             4464.22  4465.09  4466.88  4476.92  4484.01
                             4484.81  4488.91  4493.68  4497.95  4502.15
                             4505.95  4507.55  4513.06  4529.80  4545.56
                             4549.22  4563.64  4575.98  4603.13  4953.68

 Zero-point correction=                           0.488476 (Hartree/Particle)
 Thermal correction to Energy=                    0.507821
 Thermal correction to Enthalpy=                  0.508766
 Thermal correction to Gibbs Free Energy=         0.441888
 Sum of electronic and zero-point Energies=           -745.211414
 Sum of electronic and thermal Energies=              -745.192068
 Sum of electronic and thermal Enthalpies=            -745.191124
 Sum of electronic and thermal Free Energies=         -745.258001

                     E (Thermal)             CV                S
                      KCal/Mol        Cal/Mol-Kelvin    Cal/Mol-Kelvin
 Total                  318.663             79.137            140.755
 Electronic               0.000              0.000              0.000
 Translational            0.889              2.981             42.592
 Rotational               0.889              2.981             33.509
 Vibrational            316.885             73.175             64.655
 Vibration     1          0.593              1.985              6.123
 Vibration     2          0.595              1.978              4.906
 Vibration     3          0.596              1.976              4.657
 Vibration     4          0.600              1.961              3.818
 Vibration     5          0.604              1.949              3.462
 Vibration     6          0.610              1.929              3.039
 Vibration     7          0.622              1.891              2.551
 Vibration     8          0.625              1.881              2.453
 Vibration     9          0.627              1.875              2.394
 Vibration    10          0.640              1.832              2.085
 Vibration    11          0.650              1.802              1.912
 Vibration    12          0.660              1.772              1.771
 Vibration    13          0.673              1.733              1.611
 Vibration    14          0.676              1.723              1.578
 Vibration    15          0.683              1.701              1.502
 Vibration    16          0.687              1.691              1.468
 Vibration    17          0.689              1.683              1.445
 Vibration    18          0.703              1.642              1.329
 Vibration    19          0.705              1.638              1.317
 Vibration    20          0.723              1.585              1.189
 Vibration    21          0.727              1.576              1.168
 Vibration    22          0.749              1.515              1.043
 Vibration    23          0.754              1.501              1.017
 Vibration    24          0.768              1.464              0.953
 Vibration    25          0.813              1.352              0.784
 Vibration    26          0.830              1.310              0.729
 Vibration    27          0.851              1.259              0.669
 Vibration    28          0.881              1.193              0.596
 Vibration    29          0.912              1.125              0.530

                           ! Non-Optimized Parameters !
 Normal termination of Gaussian 16 at Fri Jan 24 17:16:29 2025.
 Gaussian 16:  ES64L-G16RevC.01  3-Jul-2019

 ----------------------------------------------------------------------
 #p def2tzvp pbe1pbe integral=ultrafinegrid geom=allcheck guess=read em
 =gd3bj
 ----------------------------------------------------------------------

 Structure from the checkpoint file:  "with_proton.chk"
 -----------
 with_proton
 -----------
 Charge =  1 Multiplicity = 1

                         Standard orientation:
 ---------------------------------------------------------------------
 Center     Atomic      Atomic             Coordinates (Angstroms)
 Number     Number       Type             X           Y           Z
 ---------------------------------------------------------------------
      1          6           0        0.080127    1.640150    1.936419
      2          6           0        0.291702    1.215903    0.491664
      3          6           0        0.664036    2.416722   -0.384342
      4          5           0        1.495739    0.190383    0.270974
      5          6           0        2.793926    0.013796    1.125597
      6          6           0        3.939439    0.655213    0.298208
      7          6           0        4.101848   -0.009153   -1.065919
      8          6           0        2.781695   -0.188288   -1.810677
      9          6           0        1.681884   -0.827577   -0.915896
     10          6           0        2.224226   -2.058230   -0.155559
     11          6           0        2.908300   -1.528765    1.138021
     12          7           0       -0.974987    0.545945   -0.061759
     13          6           0       -1.255301   -0.734328    0.668178
     14          6           0       -2.057719   -1.757844   -0.132943
     15          6           0       -3.530426   -1.910509    0.260487
     16          6           0       -4.312568   -0.630239    0.522488
     17          6           0       -4.472829    0.341228   -0.639312
     18          6           0       -3.197419    0.954839   -1.225445
     19          6           0       -2.158237    1.451973   -0.218708
     20          1           0        0.987963    2.152326    2.282325
     21          1           0       -0.080444    0.790941    2.615481
     22          1           0       -0.753825    2.350338    2.049745
     23          1           0        0.624554    2.183644   -1.459880
     24          1           0        1.697152    2.719608   -0.159404
     25          1           0        0.033999    3.297809   -0.186989
     26          1           0        2.795152    0.441060    2.138681
     27          1           0        3.754278    1.737114    0.175007
     28          1           0        4.880871    0.577736    0.866491
     29          1           0        4.803808    0.569253   -1.686338
     30          1           0        4.574859   -0.995277   -0.932518
     31          1           0        2.936202   -0.828168   -2.695286
     32          1           0        2.433687    0.784226   -2.201501
     33          1           0        0.820364   -1.088378   -1.555606
     34          1           0        1.398472   -2.743352    0.096286
     35          1           0        2.913790   -2.644274   -0.783505
     36          1           0        2.405235   -1.933323    2.029980
     37          1           0        3.958400   -1.852987    1.213072
     38          1           0       -0.268317   -1.145904    0.922142
     39          1           0       -1.744302   -0.469526    1.614467
     40          1           0       -1.566090   -2.733605   -0.002093
     41          1           0       -1.953605   -1.543249   -1.208351
     42          1           0       -4.034393   -2.503008   -0.520109
     43          1           0       -3.578938   -2.526238    1.173569
     44          1           0       -5.320128   -0.915739    0.862602
     45          1           0       -3.877880   -0.101187    1.390226
     46          1           0       -5.024418   -0.146894   -1.459154
     47          1           0       -5.122053    1.164793   -0.299435
     48          1           0       -3.492171    1.816926   -1.842051
     49          1           0       -2.715432    0.264543   -1.936815
     50          1           0       -1.751240    2.413361   -0.548821
     51          1           0       -2.587175    1.605699    0.780336
     52          1           0       -0.698260    0.258858   -1.008678
 ---------------------------------------------------------------------

 SCF Done:  E(RPBE1PBE) =  -746.468303570     A.U. after   10 cycles

 The electronic state is 1-A.
 Alpha  occ. eigenvalues --  -14.64179 -10.41775 -10.41368 -10.41053 -10.36577
 Alpha  occ. eigenvalues --  -10.36438 -10.36348 -10.35407 -10.34188 -10.34121
 Alpha  occ. eigenvalues --  -10.33838 -10.33452 -10.33008 -10.32891 -10.32862
 Alpha  occ. eigenvalues --  -10.32559 -10.31902 -10.31677  -6.89697  -1.17681
 Alpha  occ. eigenvalues --   -0.98345  -0.97522  -0.95998  -0.94911  -0.89134
 Alpha  occ. eigenvalues --   -0.88348  -0.87732  -0.86887  -0.85380  -0.80960
 Alpha  occ. eigenvalues --   -0.78733  -0.76714  -0.76134  -0.75057  -0.71724
 Alpha  occ. eigenvalues --   -0.68505  -0.68184  -0.66735  -0.66118  -0.64928
 Alpha  occ. eigenvalues --   -0.62594  -0.62423  -0.61635  -0.60403  -0.59787
 Alpha  occ. eigenvalues --   -0.58882  -0.57404  -0.56111  -0.55364  -0.54820
 Alpha  occ. eigenvalues --   -0.54298  -0.53782  -0.53694  -0.53482  -0.52475
 Alpha  occ. eigenvalues --   -0.52327  -0.51339  -0.50981  -0.50795  -0.50418
 Alpha  occ. eigenvalues --   -0.49708  -0.49466  -0.48831  -0.47352  -0.45708
 Alpha  occ. eigenvalues --   -0.45287  -0.44759  -0.44346  -0.43741  -0.43589
 Alpha  occ. eigenvalues --   -0.42664  -0.40841  -0.39983
 Alpha virt. eigenvalues --   -0.15514  -0.10712  -0.08874  -0.08415  -0.06930
 Alpha virt. eigenvalues --   -0.06791  -0.05843  -0.04528  -0.04316  -0.04067
 Alpha virt. eigenvalues --   -0.03451  -0.03206  -0.02808  -0.02429  -0.01665

 Mulliken charges:
               1
     1  C   -0.421007
     2  C    0.185080
     3  C   -0.416277
     4  B   -0.710003
     5  C    0.039405
     6  C   -0.169070
     7  C   -0.231967
     8  C   -0.162130
     9  C    0.031056
    10  C   -0.237491
    11  C   -0.216637
    12  N    0.099606
    13  C   -0.282205
    14  C   -0.228776
    15  C   -0.249930
    16  C   -0.163942
    17  C   -0.279010
    18  C   -0.185784
    19  C   -0.262546
    20  H    0.182208
    21  H    0.161168
    22  H    0.156062
    23  H    0.168180
    24  H    0.188775
    25  H    0.168897
    26  H    0.117469
    27  H    0.114395
    28  H    0.139598
    29  H    0.141671
    30  H    0.132174
    31  H    0.141148
    32  H    0.113550
    33  H    0.086728
    34  H    0.129091
    35  H    0.140638
    36  H    0.132439
    37  H    0.140766
    38  H    0.190971
    39  H    0.180972
    40  H    0.158760
    41  H    0.119512
    42  H    0.138040
    43  H    0.144283
    44  H    0.154593
    45  H    0.094770
    46  H    0.137041
    47  H    0.145871
    48  H    0.159814
    49  H    0.115663
    50  H    0.172149
    51  H    0.176772
    52  H    0.217459
 Sum of Mulliken charges =   1.00000

 Dipole moment (field-independent basis, Debye):
    X=             -3.2367    Y=              1.7425    Z=             -0.1602  Tot=              3.6795
 Quadrupole moment (field-independent basis, Debye-Ang):
   XX=            -84.1721   YY=           -105.0583   ZZ=           -111.3138
   XY=              0.2772   XZ=              0.4087   YZ=             -0.6685

 Normal termination of Gaussian 16 at Fri Jan 24 17:22:41 2025.
