 Gaussian 16, Revision C.01,

 -------------------------------------------------------------------
 #p opt freq=noraman def2svp pbe1pbe em=gd3bj integral=ultrafinegrid
 -------------------------------------------------------------------

 -------
 neutral
 -------
 Symbolic Z-matrix:
 Charge =  0 Multiplicity = 1

 SCF Done:  E(RPBE1PBE) =  -1186.46705543     A.U. after   15 cycles
 SCF Done:  E(RPBE1PBE) =  -1186.48663652     A.U. after   13 cycles
 SCF Done:  E(RPBE1PBE) =  -1186.48950542     A.U. after   13 cycles
 SCF Done:  E(RPBE1PBE) =  -1186.48947526     A.U. after   12 cycles
 SCF Done:  E(RPBE1PBE) =  -1186.48933709     A.U. after   14 cycles
 SCF Done:  E(RPBE1PBE) =  -1186.48989087     A.U. after   12 cycles
 SCF Done:  E(RPBE1PBE) =  -1186.48895010     A.U. after   13 cycles
 SCF Done:  E(RPBE1PBE) =  -1186.49006046     A.U. after   11 cycles
 SCF Done:  E(RPBE1PBE) =  -1186.48955169     A.U. after   12 cycles
 SCF Done:  E(RPBE1PBE) =  -1186.49034353     A.U. after   12 cycles
 SCF Done:  E(RPBE1PBE) =  -1186.49088903     A.U. after    9 cycles
 SCF Done:  E(RPBE1PBE) =  -1186.49089097     A.U. after    9 cycles
 SCF Done:  E(RPBE1PBE) =  -1186.49089305     A.U. after    9 cycles
 SCF Done:  E(RPBE1PBE) =  -1186.49089346     A.U. after    8 cycles
 SCF Done:  E(RPBE1PBE) =  -1186.49089352     A.U. after    6 cycles
 SCF Done:  E(RPBE1PBE) =  -1186.49089355     A.U. after    6 cycles
 SCF Done:  E(RPBE1PBE) =  -1186.49089357     A.U. after    6 cycles
 SCF Done:  E(RPBE1PBE) =  -1186.49089358     A.U. after    6 cycles
 Optimization completed.
    -- Stationary point found.
 Normal termination of Gaussian 16 at Thu Jan 23 18:40:04 2025.

 ---------------------------------------------------------------------
 #P Geom=AllCheck Guess=TCheck SCRF=Check GenChk RPBE1PBE/def2SVP Freq
 ---------------------------------------------------------------------

 Structure from the checkpoint file:  "neutral.chk"
 -------
 neutral
 -------
 Charge =  0 Multiplicity = 1

 SCF Done:  E(RPBE1PBE) =  -1186.49089358     A.U. after    1 cycles

  Exact polarizability:     272.815       1.038     222.063       2.735       0.571     182.153
 Approx polarizability:     371.201      14.124     320.563      20.791      -7.217     299.336

                      1                      2                      3
                      A                      A                      A
 Frequencies --     17.1492                27.1989                33.1584
 Red. masses --      1.0142                 7.4311                 4.9690
 Frc consts  --      0.0002                 0.0032                 0.0032
 IR Inten    --      0.3236                 0.1894                 0.1492

                      4                      5                      6
                      A                      A                      A
 Frequencies --     38.5978                42.7794                54.0587
 Red. masses --      5.1933                 4.0828                 4.7912
 Frc consts  --      0.0046                 0.0044                 0.0082
 IR Inten    --      0.1523                 0.6085                 1.1367

                      7                      8                      9
                      A                      A                      A
 Frequencies --     61.6480                63.5785               108.8031
 Red. masses --      1.4323                 2.5705                 1.1559
 Frc consts  --      0.0032                 0.0061                 0.0081
 IR Inten    --      1.0332                 0.1531                 0.2830

                     10                     11                     12
                      A                      A                      A
 Frequencies --    114.3833               116.6222               132.7833
 Red. masses --      1.1177                 4.1997                 4.1486
 Frc consts  --      0.0086                 0.0337                 0.0431
 IR Inten    --      0.3302                 0.0863                 0.4940

                     13                     14                     15
                      A                      A                      A
 Frequencies --    141.2111               153.0435               157.3758
 Red. masses --      6.6274                 4.7759                 7.7507
 Frc consts  --      0.0779                 0.0659                 0.1131
 IR Inten    --      1.0474                 0.3109                 1.5938

                     16                     17                     18
                      A                      A                      A
 Frequencies --    188.8011               198.9128               226.6467
 Red. masses --      3.0588                 4.6430                 5.9388
 Frc consts  --      0.0642                 0.1082                 0.1797
 IR Inten    --      2.5647                 2.4936                 0.2142

                     19                     20                     21
                      A                      A                      A
 Frequencies --    230.8222               277.9989               286.4765
 Red. masses --      2.9009                 2.5301                 4.8528
 Frc consts  --      0.0911                 0.1152                 0.2346
 IR Inten    --      0.0495                 0.5654                 0.9951

                     22                     23                     24
                      A                      A                      A
 Frequencies --    297.8209               304.6392               312.1848
 Red. masses --     14.0726                 4.6972                 2.9485
 Frc consts  --      0.7354                 0.2568                 0.1693
 IR Inten    --      0.8089                 2.4319                 0.7898

                     25                     26                     27
                      A                      A                      A
 Frequencies --    349.2932               371.7317               392.2423
 Red. masses --      4.5886                 6.3009                 6.9748
 Frc consts  --      0.3298                 0.5130                 0.6323
 IR Inten    --      0.4022                 9.4812                 0.8711

                     28                     29                     30
                      A                      A                      A
 Frequencies --    402.0934               457.5825               475.7983
 Red. masses --      4.6112                 9.2213                 3.3586
 Frc consts  --      0.4393                 1.1376                 0.4480
 IR Inten    --      1.2609                 0.8597                 0.8916

                     31                     32                     33
                      A                      A                      A
 Frequencies --    507.5641               525.1290               537.7658
 Red. masses --      4.3861                 3.8546                 3.9270
 Frc consts  --      0.6657                 0.6263                 0.6691
 IR Inten    --      2.3514                 1.9346                 0.0800

                     34                     35                     36
                      A                      A                      A
 Frequencies --    544.5701               552.1850               575.6807
 Red. masses --      5.6955                 4.9984                 3.5255
 Frc consts  --      0.9952                 0.8979                 0.6884
 IR Inten    --     10.8422                 3.2509                 2.1621

                     37                     38                     39
                      A                      A                      A
 Frequencies --    590.2176               612.6368               637.2721
 Red. masses --      4.0000                 5.5359                 4.6777
 Frc consts  --      0.8210                 1.2242                 1.1193
 IR Inten    --      0.1759                 5.5872                 7.3629

                     40                     41                     42
                      A                      A                      A
 Frequencies --    641.9082               681.8452               703.9249
 Red. masses --      3.9989                 3.7128                 4.3654
 Frc consts  --      0.9708                 1.0170                 1.2745
 IR Inten    --      5.4681                14.3447                 2.4417

                     43                     44                     45
                      A                      A                      A
 Frequencies --    721.3406               744.2849               753.6997
 Red. masses --      5.4794                 6.4725                 4.2997
 Frc consts  --      1.6798                 2.1125                 1.4391
 IR Inten    --      2.2511                10.4341                19.8756

                     46                     47                     48
                      A                      A                      A
 Frequencies --    756.5188               816.8936               837.5280
 Red. masses --      6.8131                 6.8221                 1.5788
 Frc consts  --      2.2974                 2.6823                 0.6525
 IR Inten    --      5.6817                55.5606                28.5343

                     49                     50                     51
                      A                      A                      A
 Frequencies --    856.0085               867.7365               877.9812
 Red. masses --      1.6106                 2.4157                 1.8527
 Frc consts  --      0.6953                 1.0717                 0.8415
 IR Inten    --      5.3387                76.3614                24.5120

                     52                     53                     54
                      A                      A                      A
 Frequencies --    908.3481               934.8445               952.7836
 Red. masses --      1.3020                 2.4637                 1.9407
 Frc consts  --      0.6330                 1.2686                 1.0380
 IR Inten    --      0.3754                15.4759                 0.3305

                     55                     56                     57
                      A                      A                      A
 Frequencies --    954.3872               974.7785               997.9490
 Red. masses --      1.3601                 2.6085                 5.1338
 Frc consts  --      0.7299                 1.4604                 3.0123
 IR Inten    --      0.4103                 9.4986                21.7557

                     58                     59                     60
                      A                      A                      A
 Frequencies --   1026.4891              1027.5829              1031.9126
 Red. masses --      1.5726                 3.1278                 1.9478
 Frc consts  --      0.9763                 1.9459                 1.2220
 IR Inten    --      3.3810                15.8970                 6.7006

                     61                     62                     63
                      A                      A                      A
 Frequencies --   1040.4408              1044.5071              1047.5227
 Red. masses --      1.6518                 1.5955                 2.1525
 Frc consts  --      1.0535                 1.0256                 1.3916
 IR Inten    --      3.2618                 5.5963                 7.3212

                     64                     65                     66
                      A                      A                      A
 Frequencies --   1049.8122              1051.5532              1052.7494
 Red. masses --      1.8043                 1.6040                 2.0794
 Frc consts  --      1.1716                 1.0450                 1.3578
 IR Inten    --     12.2090                 3.7390                 4.4346

                     67                     68                     69
                      A                      A                      A
 Frequencies --   1076.0730              1156.0167              1181.3243
 Red. masses --      2.0764                 2.0026                 1.7143
 Frc consts  --      1.4166                 1.5768                 1.4096
 IR Inten    --      7.1346                 2.1931                76.2456

                     70                     71                     72
                      A                      A                      A
 Frequencies --   1183.1052              1226.0569              1239.4580
 Red. masses --      2.1677                 2.7260                 2.7014
 Frc consts  --      1.7877                 2.4143                 2.4451
 IR Inten    --     85.2337                54.8778                12.5578

                     73                     74                     75
                      A                      A                      A
 Frequencies --   1249.5453              1253.0247              1309.5577
 Red. masses --      2.0546                 1.4242                 5.5663
 Frc consts  --      1.8901                 1.3175                 5.6243
 IR Inten    --     23.5212                 2.0344               216.0518

                     76                     77                     78
                      A                      A                      A
 Frequencies --   1336.1441              1343.3952              1358.0879
 Red. masses --      2.2037                 2.4404                 7.2456
 Frc consts  --      2.3180                 2.5949                 7.8737
 IR Inten    --      9.6530                14.8383                12.4713

                     79                     80                     81
                      A                      A                      A
 Frequencies --   1362.0226              1372.7329              1387.6961
 Red. masses --      5.6549                 7.4156                 1.2845
 Frc consts  --      6.1808                 8.2332                 1.4574
 IR Inten    --      7.9662                 1.3161                 2.0097

                     82                     83                     84
                      A                      A                      A
 Frequencies --   1388.8069              1390.4878              1403.1550
 Red. masses --      9.3445                 1.3983                 1.7564
 Frc consts  --     10.6192                 1.5929                 2.0374
 IR Inten    --      0.5696                 3.8415                 9.4414

                     85                     86                     87
                      A                      A                      A
 Frequencies --   1408.2863              1436.4583              1445.4207
 Red. masses --      1.9103                 1.3698                 1.0411
 Frc consts  --      2.2322                 1.6653                 1.2815
 IR Inten    --      3.5573                 5.2198                 9.5023

                     88                     89                     90
                      A                      A                      A
 Frequencies --   1448.3087              1450.5470              1453.0722
 Red. masses --      1.1677                 1.1411                 1.0548
 Frc consts  --      1.4432                 1.4146                 1.3122
 IR Inten    --     29.3239                14.2716                 2.7059

                     91                     92                     93
                      A                      A                      A
 Frequencies --   1458.4486              1462.6753              1463.0727
 Red. masses --      1.0642                 1.0855                 1.1072
 Frc consts  --      1.3337                 1.3683                 1.3964
 IR Inten    --      5.8695                 7.5345                10.7599

                     94                     95                     96
                      A                      A                      A
 Frequencies --   1493.4252              1502.4236              1524.9737
 Red. masses --      2.1966                 7.5551                 3.3374
 Frc consts  --      2.8864                10.0479                 4.5729
 IR Inten    --     37.3725                31.4182                 0.2388

                     97                     98                     99
                      A                      A                      A
 Frequencies --   1554.0401              1592.4372              1640.0909
 Red. masses --      5.7156                 6.4689                 8.0751
 Frc consts  --      8.1327                 9.6650                12.7978
 IR Inten    --    382.7594               167.7561                25.1601

                    100                    101                    102
                      A                      A                      A
 Frequencies --   1682.4749              1693.4165              1701.7098
 Red. masses --      8.4895                 6.8934                10.2167
 Frc consts  --     14.1588                11.6469                17.4314
 IR Inten    --     35.4937                53.9192               109.4855

                    103                    104                    105
                      A                      A                      A
 Frequencies --   1711.4492              3049.1269              3052.0714
 Red. masses --      9.7013                 1.0391                 1.0397
 Frc consts  --     16.7421                 5.6922                 5.7061
 IR Inten    --     51.3617                15.9242                27.2712

                    106                    107                    108
                      A                      A                      A
 Frequencies --   3060.0927              3071.4580              3129.9511
 Red. masses --      1.0379                 1.0389                 1.1017
 Frc consts  --      5.7262                 5.7746                 6.3589
 IR Inten    --     18.3661                 9.4660                 5.4270

                    109                    110                    111
                      A                      A                      A
 Frequencies --   3135.4123              3146.0452              3155.9600
 Red. masses --      1.0999                 1.1014                 1.1032
 Frc consts  --      6.3708                 6.4227                 6.4738
 IR Inten    --      9.8911                 5.8344                 2.0962

                    112                    113                    114
                      A                      A                      A
 Frequencies --   3157.8929              3163.6169              3164.1649
 Red. masses --      1.1032                 1.1040                 1.1046
 Frc consts  --      6.4818                 6.5101                 6.5157
 IR Inten    --     12.8570                10.6001                 7.9214

                    115                    116                    117
                      A                      A                      A
 Frequencies --   3183.3662              3184.7105              3210.9474
 Red. masses --      1.0917                 1.0920                 1.1038
 Frc consts  --      6.5180                 6.5252                 6.7051
 IR Inten    --     18.9208                11.7012                 0.0993

                    118                    119                    120
                      A                      A                      A
 Frequencies --   3235.7008              3249.2927              3304.5906
 Red. masses --      1.0901                 1.0980                 1.1017
 Frc consts  --      6.7243                 6.8300                 7.0885
 IR Inten    --      0.6574                 0.4127                 1.7278

 - Thermochemistry -
 -------------------
 Temperature   298.150 Kelvin.  Pressure   1.00000 Atm.
 Atom     1 has atomic number  6 and mass  12.00000

 Molecular mass:   343.13553 amu.
 Principal axes and moments of inertia in atomic units:
                           1         2         3
     Eigenvalues --  6835.638559929.24357**********
           X            0.99885  -0.04607  -0.01352
           Y            0.04625   0.99884   0.01310
           Z            0.01290  -0.01371   0.99982
 This molecule is an asymmetric top.
 Rotational symmetry number  1.
 Warning -- assumption of classical behavior for rotation
           may cause significant error
 Rotational temperatures (Kelvin)      0.01267     0.00872     0.00644
 Rotational constants (GHZ):           0.26402     0.18176     0.13421
 Zero-point vibrational energy     846164.2 (Joules/Mol)
                                  202.23810 (Kcal/Mol)
 Warning -- explicit consideration of  38 degrees of freedom as
           vibrations may cause significant error
 Vibrational temperatures:     24.67    39.13    47.71    55.53    61.55
          (Kelvin)             77.78    88.70    91.48   156.54   164.57
                              167.79   191.05   203.17   220.20   226.43
                              271.64   286.19   326.09   332.10   399.98
                              412.18   428.50   438.31   449.16   502.55
                              534.84   564.35   578.52   658.36   684.57
                              730.27   755.54   773.73   783.51   794.47
                              828.28   849.19   881.45   916.89   923.56
                              981.02  1012.79  1037.85  1070.86  1084.41
                             1088.46  1175.33  1205.02  1231.61  1248.48
                             1263.22  1306.91  1345.03  1370.84  1373.15
                             1402.49  1435.83  1476.89  1478.46  1484.69
                             1496.96  1502.81  1507.15  1510.45  1512.95
                             1514.67  1548.23  1663.25  1699.66  1702.22
                             1764.02  1783.30  1797.82  1802.82  1884.16
                             1922.41  1932.85  1953.99  1959.65  1975.06
                             1996.59  1998.18  2000.60  2018.83  2026.21
                             2066.74  2079.64  2083.79  2087.01  2090.65
                             2098.38  2104.46  2105.04  2148.71  2161.65
                             2194.10  2235.92  2291.16  2359.73  2420.71
                             2436.45  2448.38  2462.39  4387.01  4391.25
                             4402.79  4419.14  4503.30  4511.16  4526.46
                             4540.72  4543.50  4551.74  4552.53  4580.15
                             4582.09  4619.84  4655.45  4675.01  4754.57

 Zero-point correction=                           0.322287 (Hartree/Particle)
 Thermal correction to Energy=                    0.346369
 Thermal correction to Enthalpy=                  0.347313
 Thermal correction to Gibbs Free Energy=         0.265419
 Sum of electronic and zero-point Energies=          -1186.168607
 Sum of electronic and thermal Energies=             -1186.144525
 Sum of electronic and thermal Enthalpies=           -1186.143581
 Sum of electronic and thermal Free Energies=        -1186.225474

                     E (Thermal)             CV                S
                      KCal/Mol        Cal/Mol-Kelvin    Cal/Mol-Kelvin
 Total                  217.350             87.914            172.360
 Electronic               0.000              0.000              0.000
 Translational            0.889              2.981             43.393
 Rotational               0.889              2.981             35.166
 Vibrational            215.572             81.953             93.800
 Vibration     1          0.593              1.986              6.940
 Vibration     2          0.593              1.984              6.024
 Vibration     3          0.594              1.983              5.631
 Vibration     4          0.594              1.981              5.330
 Vibration     5          0.595              1.980              5.126
 Vibration     6          0.596              1.976              4.663
 Vibration     7          0.597              1.973              4.404
 Vibration     8          0.597              1.972              4.343
 Vibration     9          0.606              1.942              3.290
 Vibration    10          0.607              1.938              3.193
 Vibration    11          0.608              1.936              3.156
 Vibration    12          0.613              1.921              2.905
 Vibration    13          0.615              1.912              2.787
 Vibration    14          0.619              1.899              2.634
 Vibration    15          0.621              1.894              2.581
 Vibration    16          0.633              1.855              2.240
 Vibration    17          0.637              1.841              2.143
 Vibration    18          0.650              1.800              1.905
 Vibration    19          0.653              1.794              1.873
 Vibration    20          0.679              1.714              1.546
 Vibration    21          0.684              1.699              1.495
 Vibration    22          0.691              1.678              1.429
 Vibration    23          0.696              1.665              1.391
 Vibration    24          0.701              1.650              1.351
 Vibration    25          0.727              1.577              1.169
 Vibration    26          0.743              1.530              1.073
 Vibration    27          0.760              1.487              0.992
 Vibration    28          0.768              1.466              0.955
 Vibration    29          0.816              1.344              0.773
 Vibration    30          0.832              1.304              0.721
 Vibration    31          0.863              1.233              0.639
 Vibration    32          0.880              1.194              0.598
 Vibration    33          0.893              1.167              0.570
 Vibration    34          0.900              1.152              0.556
 Vibration    35          0.908              1.135              0.540
 Vibration    36          0.932              1.084              0.493
 Vibration    37          0.948              1.053              0.467
 Vibration    38          0.972              1.005              0.428

                           ! Non-Optimized Parameters !
 Normal termination of Gaussian 16 at Thu Jan 23 18:48:06 2025.
 Gaussian 16:  ES64L-G16RevC.01  3-Jul-2019

 ----------------------------------------------------------------------
 #p def2tzvp pbe1pbe integral=ultrafinegrid geom=allcheck guess=read em
 =gd3bj
 ----------------------------------------------------------------------

 Structure from the checkpoint file:  "neutral.chk"
 -------
 neutral
 -------
 Charge =  0 Multiplicity = 1

                         Standard orientation:
 ---------------------------------------------------------------------
 Center     Atomic      Atomic             Coordinates (Angstroms)
 Number     Number       Type             X           Y           Z
 ---------------------------------------------------------------------
      1          6           0        0.087850    2.789438   -0.325323
      2          6           0       -0.589595    1.661406    0.062543
      3          5           0       -0.024203    0.230719    0.133754
      4          6           0        1.520447    0.004028   -0.027823
      5          6           0        1.993502   -0.557020   -1.231903
      6          6           0        1.030256   -0.992499   -2.303704
      7          6           0        3.367262   -0.710039   -1.430198
      8          6           0        4.295327   -0.343327   -0.453317
      9          6           0        5.766598   -0.551301   -0.667049
     10          6           0        3.811427    0.196006    0.740720
     11          6           0        2.445489    0.379113    0.968795
     12          6           0        1.976252    0.919918    2.291135
     13          6           0       -1.019090   -0.975658    0.304464
     14          6           0       -0.823345   -1.977341    1.260519
     15          9           0        0.236275   -1.887814    2.069063
     16          6           0       -1.688985   -3.047539    1.434817
     17          6           0       -2.804335   -3.148979    0.605673
     18          6           0       -3.029762   -2.185301   -0.365373
     19          9           0       -4.078676   -2.273035   -1.176656
     20          6           0       -2.147608   -1.114460   -0.504632
     21          9           0       -2.378471   -0.242129   -1.478238
     22          7           0       -1.903788    2.048650    0.339191
     23          6           0       -1.949405    3.314787    0.117125
     24          6           0       -3.087135    4.249626    0.249928
     25          8           0       -0.755204    3.832305   -0.300174
     26          1           0        1.113360    2.973557   -0.636820
     27          1           0        0.539246   -1.940653   -2.028702
     28          1           0        1.542221   -1.150871   -3.263238
     29          1           0        0.227795   -0.256446   -2.470149
     30          1           0        3.723375   -1.126536   -2.377810
     31          1           0        6.032891   -0.490626   -1.732383
     32          1           0        6.079127   -1.546657   -0.308660
     33          1           0        6.363668    0.193253   -0.120411
     34          1           0        4.521276    0.486717    1.521569
     35          1           0        2.818955    1.263150    2.907305
     36          1           0        1.278861    1.761840    2.166143
     37          1           0        1.439441    0.141414    2.855948
     38          1           0       -1.483467   -3.786038    2.210453
     39          1           0       -3.509651   -3.976849    0.697478
     40          1           0       -2.862374    5.044200    0.977581
     41          1           0       -3.965283    3.687537    0.587107
     42          1           0       -3.313325    4.732074   -0.713033
 ---------------------------------------------------------------------

 SCF Done:  E(RPBE1PBE) =  -1187.79133058     A.U. after   12 cycles

 The electronic state is 1-A.
 Alpha  occ. eigenvalues --  -24.79110 -24.79057 -24.78731 -19.29694 -14.38150
 Alpha  occ. eigenvalues --  -10.32441 -10.32051 -10.31964 -10.31666 -10.29637
 Alpha  occ. eigenvalues --  -10.25131 -10.24304 -10.24254 -10.23919 -10.23330
 Alpha  occ. eigenvalues --  -10.23299 -10.23295 -10.23117 -10.21770 -10.21592
 Alpha  occ. eigenvalues --  -10.21416 -10.21384 -10.21201 -10.20636  -6.78771
 Alpha  occ. eigenvalues --   -1.28096  -1.26929  -1.26635  -1.17913  -0.95231
 Alpha  occ. eigenvalues --   -0.90210  -0.88198  -0.82692  -0.80377  -0.80064
 Alpha  occ. eigenvalues --   -0.79261  -0.78020  -0.73768  -0.71752  -0.69814
 Alpha  occ. eigenvalues --   -0.69435  -0.67364  -0.65804  -0.65228  -0.60181
 Alpha  occ. eigenvalues --   -0.59338  -0.58835  -0.58482  -0.57170  -0.56023
 Alpha  occ. eigenvalues --   -0.55314  -0.52458  -0.51652  -0.51275  -0.51143
 Alpha  occ. eigenvalues --   -0.49481  -0.49191  -0.47964  -0.47671  -0.47273
 Alpha  occ. eigenvalues --   -0.46530  -0.45313  -0.44339  -0.43593  -0.43551
 Alpha  occ. eigenvalues --   -0.43417  -0.42619  -0.42356  -0.41944  -0.41806
 Alpha  occ. eigenvalues --   -0.41214  -0.40929  -0.40329  -0.39989  -0.39562
 Alpha  occ. eigenvalues --   -0.38307  -0.37185  -0.37048  -0.36248  -0.34566
 Alpha  occ. eigenvalues --   -0.33994  -0.33913  -0.32262  -0.30477  -0.27763
 Alpha  occ. eigenvalues --   -0.26409  -0.25464  -0.24596  -0.24055
 Alpha virt. eigenvalues --   -0.07146  -0.01676  -0.00376   0.00052   0.00274
 Alpha virt. eigenvalues --    0.01404   0.04122   0.05070   0.05543   0.06738
 Alpha virt. eigenvalues --    0.06964   0.07809   0.08121   0.08643   0.09397

 Mulliken charges:
               1
     1  C   -0.000860
     2  C    0.054228
     3  B   -0.028589
     4  C   -0.081399
     5  C    0.190848
     6  C   -0.392202
     7  C   -0.369599
     8  C    0.261987
     9  C   -0.415305
    10  C   -0.362865
    11  C    0.180123
    12  C   -0.399062
    13  C   -0.155556
    14  C    0.306701
    15  F   -0.191779
    16  C   -0.233909
    17  C   -0.165965
    18  C    0.182062
    19  F   -0.178086
    20  C    0.268891
    21  F   -0.175152
    22  N   -0.251530
    23  C    0.219289
    24  C   -0.398467
    25  O   -0.173906
    26  H    0.175202
    27  H    0.137130
    28  H    0.131921
    29  H    0.148623
    30  H    0.094056
    31  H    0.130397
    32  H    0.137101
    33  H    0.130106
    34  H    0.092739
    35  H    0.126446
    36  H    0.138668
    37  H    0.147086
    38  H    0.132842
    39  H    0.136907
    40  H    0.144510
    41  H    0.160270
    42  H    0.146099
 Sum of Mulliken charges =  -0.00000

 Dipole moment (field-independent basis, Debye):
    X=              0.6967    Y=              1.2886    Z=              0.4149  Tot=              1.5225
 Quadrupole moment (field-independent basis, Debye-Ang):
   XX=           -138.4248   YY=           -126.6376   ZZ=           -141.4341
   XY=             -2.4735   XZ=             -4.9213   YZ=             -1.1176

 Normal termination of Gaussian 16 at Thu Jan 23 18:55:25 2025.
