 Gaussian 16, Revision C.01,

 -------------------------------------------------------------------
 #p opt freq=noraman def2svp pbe1pbe em=gd3bj integral=ultrafinegrid
 -------------------------------------------------------------------

 -----------
 with_proton
 -----------
 Symbolic Z-matrix:
 Charge =  1 Multiplicity = 1

 SCF Done:  E(RPBE1PBE) =  -1186.83462587     A.U. after   18 cycles
 SCF Done:  E(RPBE1PBE) =  -1186.86319069     A.U. after   13 cycles
 SCF Done:  E(RPBE1PBE) =  -1186.86876411     A.U. after   13 cycles
 SCF Done:  E(RPBE1PBE) =  -1186.86848446     A.U. after   12 cycles
 SCF Done:  E(RPBE1PBE) =  -1186.86837903     A.U. after   13 cycles
 SCF Done:  E(RPBE1PBE) =  -1186.86690687     A.U. after   12 cycles
 SCF Done:  E(RPBE1PBE) =  -1186.86900459     A.U. after   10 cycles
 SCF Done:  E(RPBE1PBE) =  -1186.86981740     A.U. after   13 cycles
 SCF Done:  E(RPBE1PBE) =  -1186.87017606     A.U. after   15 cycles
 SCF Done:  E(RPBE1PBE) =  -1186.86977190     A.U. after   15 cycles
 SCF Done:  E(RPBE1PBE) =  -1186.87223452     A.U. after    8 cycles
 SCF Done:  E(RPBE1PBE) =  -1186.87223465     A.U. after    7 cycles
 SCF Done:  E(RPBE1PBE) =  -1186.87223473     A.U. after    6 cycles
 SCF Done:  E(RPBE1PBE) =  -1186.87223486     A.U. after    6 cycles
 SCF Done:  E(RPBE1PBE) =  -1186.87223499     A.U. after    7 cycles
 SCF Done:  E(RPBE1PBE) =  -1186.87223507     A.U. after    7 cycles
 SCF Done:  E(RPBE1PBE) =  -1186.87223512     A.U. after    6 cycles
 SCF Done:  E(RPBE1PBE) =  -1186.87223515     A.U. after    6 cycles
 Optimization completed.
    -- Stationary point found.
 Normal termination of Gaussian 16 at Fri Jan 24 17:25:30 2025.

 ---------------------------------------------------------------------
 #P Geom=AllCheck Guess=TCheck SCRF=Check GenChk RPBE1PBE/def2SVP Freq
 ---------------------------------------------------------------------

 Structure from the checkpoint file:  "with_proton.chk"
 -----------
 with_proton
 -----------
 Charge =  1 Multiplicity = 1

 SCF Done:  E(RPBE1PBE) =  -1186.87223515     A.U. after    1 cycles

  Exact polarizability:     282.574       0.686     233.767       2.617      -0.541     167.983
 Approx polarizability:     399.829       4.577     334.103      14.986      -5.494     266.119

                      1                      2                      3
                      A                      A                      A
 Frequencies --     19.1721                28.8116                34.0109
 Red. masses --      7.4940                 4.1797                 1.0243
 Frc consts  --      0.0016                 0.0020                 0.0007
 IR Inten    --      0.5071                 0.2850                 0.4004

                      4                      5                      6
                      A                      A                      A
 Frequencies --     37.4035                44.0320                60.7220
 Red. masses --      4.1645                 5.0967                 3.8523
 Frc consts  --      0.0034                 0.0058                 0.0084
 IR Inten    --      0.6897                 1.9497                 0.9137

                      7                      8                      9
                      A                      A                      A
 Frequencies --     75.7951                85.3830                87.6052
 Red. masses --      1.4114                 1.7937                 1.1909
 Frc consts  --      0.0048                 0.0077                 0.0054
 IR Inten    --      0.6712                 1.3697                 0.7199

                     10                     11                     12
                      A                      A                      A
 Frequencies --     92.0110               116.5726               127.6491
 Red. masses --      1.1555                 4.4573                 4.1563
 Frc consts  --      0.0058                 0.0357                 0.0399
 IR Inten    --      0.7925                 1.6364                 2.3416

                     13                     14                     15
                      A                      A                      A
 Frequencies --    146.1402               152.8300               166.8423
 Red. masses --      5.4480                 8.5400                 7.4435
 Frc consts  --      0.0686                 0.1175                 0.1221
 IR Inten    --      1.2468                 0.7071                 2.0466

                     16                     17                     18
                      A                      A                      A
 Frequencies --    189.5428               198.1902               228.3114
 Red. masses --      3.1040                 4.0221                 2.9357
 Frc consts  --      0.0657                 0.0931                 0.0902
 IR Inten    --      0.8982                 8.7484                 0.1425

                     19                     20                     21
                      A                      A                      A
 Frequencies --    246.2231               272.0612               275.9158
 Red. masses --      7.5869                 6.7625                 2.5399
 Frc consts  --      0.2710                 0.2949                 0.1139
 IR Inten    --      3.3727                 0.4289                 0.1198

                     22                     23                     24
                      A                      A                      A
 Frequencies --    297.6147               304.8346               318.3835
 Red. masses --      2.9580                 4.2629                10.4753
 Frc consts  --      0.1544                 0.2334                 0.6256
 IR Inten    --      0.5798                 2.3770                 1.5948

                     25                     26                     27
                      A                      A                      A
 Frequencies --    364.1513               380.5680               382.3204
 Red. masses --      4.1870                 8.7759                 6.7188
 Frc consts  --      0.3271                 0.7489                 0.5786
 IR Inten    --      0.7502                 2.1109                 0.4363

                     28                     29                     30
                      A                      A                      A
 Frequencies --    405.3182               455.4521               462.0204
 Red. masses --      3.9031                 4.0512                 7.5032
 Frc consts  --      0.3778                 0.4951                 0.9437
 IR Inten    --      3.0727                 2.0041                 0.4783

                     31                     32                     33
                      A                      A                      A
 Frequencies --    500.8851               515.7823               534.5069
 Red. masses --      3.6847                 3.5798                 5.2381
 Frc consts  --      0.5447                 0.5611                 0.8817
 IR Inten    --      0.5326                 1.4259                 5.2693

                     34                     35                     36
                      A                      A                      A
 Frequencies --    538.8802               543.6205               577.1807
 Red. masses --      5.4517                 4.7589                 3.3906
 Frc consts  --      0.9327                 0.8286                 0.6655
 IR Inten    --      9.3243                 1.7813                 3.6933

                     37                     38                     39
                      A                      A                      A
 Frequencies --    589.0685               606.9662               632.3827
 Red. masses --      4.0057                 4.5768                 5.6286
 Frc consts  --      0.8190                 0.9934                 1.3262
 IR Inten    --      0.7728                 1.0533                16.3736

                     40                     41                     42
                      A                      A                      A
 Frequencies --    643.0986               676.1295               699.6908
 Red. masses --      4.1903                 3.6975                 4.2679
 Frc consts  --      1.0211                 0.9959                 1.2310
 IR Inten    --      7.8179                17.4343                 5.5037

                     43                     44                     45
                      A                      A                      A
 Frequencies --    704.5253               742.3686               754.5621
 Red. masses --      4.5259                 5.7246                 4.5563
 Frc consts  --      1.3236                 1.8588                 1.5284
 IR Inten    --      3.2890                 0.9196                11.9874

                     46                     47                     48
                      A                      A                      A
 Frequencies --    764.6434               813.7110               831.4711
 Red. masses --      7.1092                 4.9530                 1.4490
 Frc consts  --      2.4490                 1.9322                 0.5902
 IR Inten    --      9.9839                46.1421                38.0954

                     49                     50                     51
                      A                      A                      A
 Frequencies --    845.6844               861.9212               878.8260
 Red. masses --      3.1412                 1.5692                 1.4721
 Frc consts  --      1.3236                 0.6869                 0.6699
 IR Inten    --     42.8135                50.7136                11.4913

                     52                     53                     54
                      A                      A                      A
 Frequencies --    879.5511               919.2531               953.0668
 Red. masses --      1.3211                 1.2995                 1.9893
 Frc consts  --      0.6022                 0.6470                 1.0646
 IR Inten    --      5.2083                 1.0585                 0.0783

                     55                     56                     57
                      A                      A                      A
 Frequencies --    969.7843               978.7408               982.4564
 Red. masses --      2.2793                 1.7103                 1.3301
 Frc consts  --      1.2630                 0.9653                 0.7564
 IR Inten    --      7.0772                 5.8707                 0.2985

                     58                     59                     60
                      A                      A                      A
 Frequencies --   1008.7523              1026.8719              1027.9367
 Red. masses --      5.6179                 1.9956                 1.5273
 Frc consts  --      3.3682                 1.2398                 0.9508
 IR Inten    --     40.7891                12.1491                 4.9599

                     61                     62                     63
                      A                      A                      A
 Frequencies --   1029.6956              1038.1210              1040.8765
 Red. masses --      2.5116                 1.6682                 1.6464
 Frc consts  --      1.5690                 1.0592                 1.0510
 IR Inten    --      7.6097                 4.7720                 3.2790

                     64                     65                     66
                      A                      A                      A
 Frequencies --   1043.2387              1047.2065              1048.8161
 Red. masses --      2.0551                 2.2254                 1.6977
 Frc consts  --      1.3178                 1.4379                 1.1003
 IR Inten    --     21.2557                29.4827                21.0693

                     67                     68                     69
                      A                      A                      A
 Frequencies --   1050.6438              1082.1458              1150.8039
 Red. masses --      2.1585                 2.9591                 1.7190
 Frc consts  --      1.4038                 2.0416                 1.3413
 IR Inten    --      3.3924                 5.2570                 1.5200

                     70                     71                     72
                      A                      A                      A
 Frequencies --   1168.1840              1181.1029              1216.8416
 Red. masses --      2.8688                 1.6082                 2.5296
 Frc consts  --      2.3066                 1.3218                 2.2068
 IR Inten    --    107.1040                 9.1424                17.0065

                     73                     74                     75
                      A                      A                      A
 Frequencies --   1239.5335              1249.7615              1255.7361
 Red. masses --      2.0402                 1.8763                 1.3407
 Frc consts  --      1.8469                 1.7267                 1.2456
 IR Inten    --      1.8027               219.4799                 0.8822

                     76                     77                     78
                      A                      A                      A
 Frequencies --   1265.5709              1318.7579              1337.9328
 Red. masses --      2.3184                 4.0228                 2.2601
 Frc consts  --      2.1878                 4.1220                 2.3837
 IR Inten    --     12.0968               216.7483                22.3297

                     79                     80                     81
                      A                      A                      A
 Frequencies --   1350.1451              1364.2338              1371.9114
 Red. masses --      2.7604                 5.2217                 8.1461
 Frc consts  --      2.9648                 5.7258                 9.0334
 IR Inten    --     63.9938                 3.4989                 1.3668

                     82                     83                     84
                      A                      A                      A
 Frequencies --   1387.7939              1390.3016              1391.0455
 Red. masses --      1.3855                 1.4270                 1.2760
 Frc consts  --      1.5722                 1.6251                 1.4547
 IR Inten    --      3.5513                11.1385                 3.7342

                     85                     86                     87
                      A                      A                      A
 Frequencies --   1396.4913              1408.8838              1428.3468
 Red. masses --      7.2273                 1.8081                 1.0399
 Frc consts  --      8.3043                 2.1145                 1.2500
 IR Inten    --     14.6253                 9.7380                17.0321

                     88                     89                     90
                      A                      A                      A
 Frequencies --   1432.0719              1433.8480              1444.1262
 Red. masses --      1.3124                 1.3240                 1.1948
 Frc consts  --      1.5858                 1.6038                 1.4681
 IR Inten    --     23.6133                 6.0925                26.6322

                     91                     92                     93
                      A                      A                      A
 Frequencies --   1453.8101              1456.8275              1458.0250
 Red. masses --      1.0725                 1.0685                 1.0525
 Frc consts  --      1.3356                 1.3361                 1.3182
 IR Inten    --      2.0679                 0.9330                 3.3240

                     94                     95                     96
                      A                      A                      A
 Frequencies --   1461.0549              1482.8578              1493.6035
 Red. masses --      1.1146                 7.0200                 2.4734
 Frc consts  --      1.4019                 9.0947                 3.2509
 IR Inten    --     16.9498               149.7525                38.5736

                     97                     98                     99
                      A                      A                      A
 Frequencies --   1499.9679              1524.9463              1553.1406
 Red. masses --      3.5823                 3.4374                 5.7533
 Frc consts  --      4.7488                 4.7096                 8.1769
 IR Inten    --     82.2707                 3.8297               425.6162

                    100                    101                    102
                      A                      A                      A
 Frequencies --   1621.8470              1638.2603              1662.7988
 Red. masses --      6.0113                 7.9588                 7.9105
 Frc consts  --      9.3162                12.5853                12.8865
 IR Inten    --     84.9718                19.2539               113.4504

                    103                    104                    105
                      A                      A                      A
 Frequencies --   1681.3008              1692.5465              1722.5507
 Red. masses --      6.9711                 6.8716                 9.4414
 Frc consts  --     11.6103                11.5982                16.5057
 IR Inten    --     82.7802                77.5924                93.3016

                    106                    107                    108
                      A                      A                      A
 Frequencies --   3039.4287              3045.1931              3060.7776
 Red. masses --      1.0421                 1.0404                 1.0398
 Frc consts  --      5.6723                 5.6842                 5.7394
 IR Inten    --     19.1987                26.9718                 9.5842

                    109                    110                    111
                      A                      A                      A
 Frequencies --   3076.2877              3116.6837              3123.2019
 Red. masses --      1.0383                 1.1000                 1.1004
 Frc consts  --      5.7892                 6.2957                 6.3239
 IR Inten    --     15.4475                11.2670                18.3550

                    112                    113                    114
                      A                      A                      A
 Frequencies --   3146.4314              3162.7811              3164.9270
 Red. masses --      1.1002                 1.1024                 1.1012
 Frc consts  --      6.4171                 6.4973                 6.4991
 IR Inten    --      5.2642                 7.1425                 6.1849

                    115                    116                    117
                      A                      A                      A
 Frequencies --   3168.2123              3175.5620              3194.3208
 Red. masses --      1.1033                 1.1051                 1.0922
 Frc consts  --      6.5249                 6.5660                 6.5659
 IR Inten    --      8.9187                 4.1622                 6.3110

                    118                    119                    120
                      A                      A                      A
 Frequencies --   3195.2226              3212.2208              3240.0405
 Red. masses --      1.0927                 1.1062                 1.0918
 Frc consts  --      6.5726                 6.7251                 6.7527
 IR Inten    --      2.9926                 5.1110                 2.8716

                    121                    122                    123
                      A                      A                      A
 Frequencies --   3253.6906              3320.7811              3579.2264
 Red. masses --      1.0980                 1.1057                 1.0856
 Frc consts  --      6.8489                 7.1840                 8.1939
 IR Inten    --     10.6993                22.8086               271.7297

 - Thermochemistry -
 -------------------
 Temperature   298.150 Kelvin.  Pressure   1.00000 Atm.
 Atom     1 has atomic number  6 and mass  12.00000

 Molecular mass:   344.14335 amu.
 Principal axes and moments of inertia in atomic units:
                           1         2         3
     Eigenvalues --  6843.843909716.24252**********
           X            0.99873  -0.04983  -0.00681
           Y            0.04988   0.99873   0.00696
           Z            0.00646  -0.00729   0.99995
 This molecule is an asymmetric top.
 Rotational symmetry number  1.
 Warning -- assumption of classical behavior for rotation
           may cause significant error
 Rotational temperatures (Kelvin)      0.01266     0.00891     0.00609
 Rotational constants (GHZ):           0.26370     0.18574     0.12693
 Zero-point vibrational energy     881055.1 (Joules/Mol)
                                  210.57721 (Kcal/Mol)
 Warning -- explicit consideration of  38 degrees of freedom as
           vibrations may cause significant error
 Vibrational temperatures:     27.58    41.45    48.93    53.82    63.35
          (Kelvin)             87.37   109.05   122.85   126.04   132.38
                              167.72   183.66   210.26   219.89   240.05
                              272.71   285.15   328.49   354.26   391.44
                              396.98   428.20   438.59   458.08   523.93
                              547.55   550.07   583.16   655.29   664.74
                              720.66   742.10   769.04   775.33   782.15
                              830.43   847.54   873.29   909.86   925.28
                              972.80  1006.70  1013.65  1068.10  1085.65
                             1100.15  1170.75  1196.30  1216.75  1240.11
                             1264.43  1265.48  1322.60  1371.25  1395.30
                             1408.19  1413.54  1451.37  1477.44  1478.97
                             1481.50  1493.62  1497.59  1500.99  1506.70
                             1509.01  1511.64  1556.97  1655.75  1680.76
                             1699.34  1750.76  1783.41  1798.13  1806.72
                             1820.87  1897.40  1924.99  1942.56  1962.83
                             1973.87  1996.73  2000.33  2001.40  2009.24
                             2027.07  2055.07  2060.43  2062.99  2077.78
                             2091.71  2096.05  2097.77  2102.13  2133.50
                             2148.96  2158.12  2194.06  2234.62  2333.48
                             2357.09  2392.40  2419.02  2435.20  2478.37
                             4373.06  4381.35  4403.78  4426.09  4484.21
                             4493.59  4527.01  4550.54  4553.62  4558.35
                             4568.93  4595.92  4597.21  4621.67  4661.70
                             4681.34  4777.86  5149.71

 Zero-point correction=                           0.335576 (Hartree/Particle)
 Thermal correction to Energy=                    0.359713
 Thermal correction to Enthalpy=                  0.360657
 Thermal correction to Gibbs Free Energy=         0.279056
 Sum of electronic and zero-point Energies=          -1186.536659
 Sum of electronic and thermal Energies=             -1186.512522
 Sum of electronic and thermal Enthalpies=           -1186.511578
 Sum of electronic and thermal Free Energies=        -1186.593179

                     E (Thermal)             CV                S
                      KCal/Mol        Cal/Mol-Kelvin    Cal/Mol-Kelvin
 Total                  225.723             88.657            171.744
 Electronic               0.000              0.000              0.000
 Translational            0.889              2.981             43.402
 Rotational               0.889              2.981             35.201
 Vibrational            223.946             82.696             93.141
 Vibration     1          0.593              1.986              6.718
 Vibration     2          0.593              1.984              5.910
 Vibration     3          0.594              1.983              5.581
 Vibration     4          0.594              1.982              5.392
 Vibration     5          0.595              1.980              5.069
 Vibration     6          0.597              1.973              4.434
 Vibration     7          0.599              1.965              3.997
 Vibration     8          0.601              1.959              3.763
 Vibration     9          0.601              1.958              3.713
 Vibration    10          0.602              1.955              3.617
 Vibration    11          0.608              1.936              3.156
 Vibration    12          0.611              1.926              2.981
 Vibration    13          0.617              1.907              2.722
 Vibration    14          0.619              1.900              2.637
 Vibration    15          0.624              1.883              2.471
 Vibration    16          0.633              1.854              2.232
 Vibration    17          0.637              1.842              2.150
 Vibration    18          0.651              1.798              1.892
 Vibration    19          0.661              1.769              1.757
 Vibration    20          0.675              1.725              1.583
 Vibration    21          0.678              1.718              1.559
 Vibration    22          0.691              1.678              1.430
 Vibration    23          0.696              1.665              1.390
 Vibration    24          0.705              1.638              1.318
 Vibration    25          0.738              1.546              1.104
 Vibration    26          0.750              1.512              1.037
 Vibration    27          0.752              1.508              1.030
 Vibration    28          0.770              1.459              0.943
 Vibration    29          0.814              1.349              0.779
 Vibration    30          0.820              1.334              0.760
 Vibration    31          0.856              1.248              0.656
 Vibration    32          0.871              1.215              0.620
 Vibration    33          0.889              1.174              0.577
 Vibration    34          0.894              1.164              0.568
 Vibration    35          0.899              1.154              0.558
 Vibration    36          0.934              1.081              0.491
 Vibration    37          0.946              1.055              0.469
 Vibration    38          0.966              1.017              0.438

                           ! Non-Optimized Parameters !
 Normal termination of Gaussian 16 at Fri Jan 24 17:33:30 2025.
 Gaussian 16:  ES64L-G16RevC.01  3-Jul-2019

 ----------------------------------------------------------------------
 #p def2tzvp pbe1pbe integral=ultrafinegrid geom=allcheck guess=read em
 =gd3bj
 ----------------------------------------------------------------------

 Structure from the checkpoint file:  "with_proton.chk"
 -----------
 with_proton
 -----------
 Charge =  1 Multiplicity = 1

                         Standard orientation:
 ---------------------------------------------------------------------
 Center     Atomic      Atomic             Coordinates (Angstroms)
 Number     Number       Type             X           Y           Z
 ---------------------------------------------------------------------
      1          6           0        0.560719    2.617782   -0.006614
      2          6           0       -0.392274    1.644736    0.036647
      3          5           0       -0.089249    0.096450    0.057525
      4          6           0        1.447335   -0.178952   -0.028364
      5          6           0        2.007304   -0.456583   -1.291402
      6          6           0        1.120124   -0.601972   -2.497562
      7          6           0        3.389639   -0.603868   -1.405800
      8          6           0        4.236424   -0.496476   -0.297403
      9          6           0        5.716536   -0.689855   -0.439483
     10          6           0        3.659646   -0.233482    0.947984
     11          6           0        2.280400   -0.077824    1.101656
     12          6           0        1.687885    0.109291    2.469818
     13          6           0       -1.166025   -1.024608    0.141630
     14          6           0       -0.813575   -2.322770    0.576380
     15          9           0        0.425312   -2.562084    0.965652
     16          6           0       -1.716298   -3.376558    0.643027
     17          6           0       -3.035704   -3.170448    0.258303
     18          6           0       -3.439025   -1.914318   -0.178948
     19          9           0       -4.684490   -1.686912   -0.554299
     20          6           0       -2.513862   -0.881502   -0.222635
     21          9           0       -2.963984    0.304220   -0.672738
     22          7           0       -1.582416    2.376154    0.124345
     23          6           0       -1.333742    3.665804    0.127757
     24          6           0       -2.261639    4.802457    0.191797
     25          8           0       -0.031868    3.840114    0.052974
     26          1           0        1.645692    2.582219   -0.069858
     27          1           0        0.551027   -1.545394   -2.459948
     28          1           0        1.699117   -0.605626   -3.430936
     29          1           0        0.382478    0.215652   -2.574122
     30          1           0        3.821600   -0.802762   -2.391121
     31          1           0        6.083262   -0.311299   -1.404307
     32          1           0        5.972557   -1.761278   -0.392404
     33          1           0        6.270779   -0.185475    0.364247
     34          1           0        4.304147   -0.152108    1.828343
     35          1           0        2.412548    0.529878    3.180785
     36          1           0        0.804733    0.769985    2.460625
     37          1           0        1.353904   -0.860597    2.873227
     38          1           0       -1.371093   -4.349166    0.995626
     39          1           0       -3.771079   -3.977087    0.290274
     40          1           0       -2.034797    5.419294    1.074936
     41          1           0       -3.300009    4.455262    0.247434
     42          1           0       -2.135484    5.437054   -0.698853
     43          1           0       -2.506032    1.943073    0.115968
 ---------------------------------------------------------------------

 SCF Done:  E(RPBE1PBE) =  -1188.16896570     A.U. after   12 cycles

 The electronic state is 1-A.
 Alpha  occ. eigenvalues --  -24.93763 -24.90501 -24.90179 -19.48189 -14.63805
 Alpha  occ. eigenvalues --  -10.53257 -10.46224 -10.45383 -10.44525 -10.43751
 Alpha  occ. eigenvalues --  -10.42408 -10.40470 -10.37135 -10.36344 -10.35791
 Alpha  occ. eigenvalues --  -10.33481 -10.33474 -10.32648 -10.31838 -10.31812
 Alpha  occ. eigenvalues --  -10.31233 -10.31091 -10.31088 -10.29746  -6.93011
 Alpha  occ. eigenvalues --   -1.41875  -1.38874  -1.38794  -1.37673  -1.17901
 Alpha  occ. eigenvalues --   -1.02369  -1.01453  -0.98276  -0.92174  -0.91413
 Alpha  occ. eigenvalues --   -0.90346  -0.90206  -0.89638  -0.86489  -0.83845
 Alpha  occ. eigenvalues --   -0.81548  -0.80170  -0.79438  -0.78788  -0.77728
 Alpha  occ. eigenvalues --   -0.74635  -0.72351  -0.70443  -0.69549  -0.69215
 Alpha  occ. eigenvalues --   -0.68599  -0.67573  -0.66225  -0.65532  -0.64581
 Alpha  occ. eigenvalues --   -0.63970  -0.62752  -0.61299  -0.60453  -0.60368
 Alpha  occ. eigenvalues --   -0.59891  -0.59558  -0.59143  -0.58763  -0.58170
 Alpha  occ. eigenvalues --   -0.57686  -0.55594  -0.55041  -0.54767  -0.53785
 Alpha  occ. eigenvalues --   -0.53280  -0.52538  -0.51614  -0.51067  -0.50921
 Alpha  occ. eigenvalues --   -0.50847  -0.49617  -0.49176  -0.48927  -0.48365
 Alpha  occ. eigenvalues --   -0.46622  -0.44738  -0.43997  -0.43644  -0.42827
 Alpha  occ. eigenvalues --   -0.40511  -0.37438  -0.34569  -0.34126
 Alpha virt. eigenvalues --   -0.21695  -0.19030  -0.13886  -0.11860  -0.10889
 Alpha virt. eigenvalues --   -0.10615  -0.09775  -0.07291  -0.06402  -0.05747
 Alpha virt. eigenvalues --   -0.04741  -0.04053  -0.03136  -0.02973  -0.02802

 Mulliken charges:
               1
     1  C    0.075155
     2  C   -0.005049
     3  B   -0.033195
     4  C   -0.195597
     5  C    0.242162
     6  C   -0.404614
     7  C   -0.341572
     8  C    0.237329
     9  C   -0.410866
    10  C   -0.322273
    11  C    0.160901
    12  C   -0.395915
    13  C   -0.160443
    14  C    0.338845
    15  F   -0.152879
    16  C   -0.214519
    17  C   -0.133539
    18  C    0.185441
    19  F   -0.154063
    20  C    0.258430
    21  F   -0.224171
    22  N   -0.135849
    23  C    0.292484
    24  C   -0.363682
    25  O   -0.111744
    26  H    0.233971
    27  H    0.151877
    28  H    0.157268
    29  H    0.130981
    30  H    0.117704
    31  H    0.141887
    32  H    0.153602
    33  H    0.140789
    34  H    0.116804
    35  H    0.155508
    36  H    0.118366
    37  H    0.160529
    38  H    0.166326
    39  H    0.172444
    40  H    0.196389
    41  H    0.171928
    42  H    0.196748
    43  H    0.286102
 Sum of Mulliken charges =   1.00000

 Dipole moment (field-independent basis, Debye):
    X=             -4.1221    Y=              7.7044    Z=              0.9079  Tot=              8.7849
 Quadrupole moment (field-independent basis, Debye-Ang):
   XX=           -106.1033   YY=            -76.9142   ZZ=           -133.1350
   XY=            -11.8829   XZ=             -4.3000   YZ=              0.9448

 Normal termination of Gaussian 16 at Fri Jan 24 17:40:35 2025.
