 Gaussian 16, Revision C.01,

 -------------------------------------------------------------------
 #p opt freq=noraman def2svp pbe1pbe em=gd3bj integral=ultrafinegrid
 -------------------------------------------------------------------

 ------------
 with_hydride
 ------------
 Symbolic Z-matrix:
 Charge = -1 Multiplicity = 1

 SCF Done:  E(RPBE1PBE) =  -1186.30829671     A.U. after   20 cycles
 SCF Done:  E(RPBE1PBE) =  -1186.68090615     A.U. after   16 cycles
 SCF Done:  E(RPBE1PBE) =  -1186.91662767     A.U. after   15 cycles
 SCF Done:  E(RPBE1PBE) =  -1186.94214333     A.U. after   16 cycles
 SCF Done:  E(RPBE1PBE) =  -1187.01581098     A.U. after   14 cycles
 SCF Done:  E(RPBE1PBE) =  -1187.04484384     A.U. after   16 cycles
 SCF Done:  E(RPBE1PBE) =  -1187.06587493     A.U. after   15 cycles
 SCF Done:  E(RPBE1PBE) =  -1187.08281242     A.U. after   13 cycles
 SCF Done:  E(RPBE1PBE) =  -1187.10666426     A.U. after   13 cycles
 SCF Done:  E(RPBE1PBE) =  -1187.13044370     A.U. after   13 cycles
 SCF Done:  E(RPBE1PBE) =  -1187.14390081     A.U. after   11 cycles
 SCF Done:  E(RPBE1PBE) =  -1187.14391924     A.U. after   10 cycles
 SCF Done:  E(RPBE1PBE) =  -1187.14393411     A.U. after   10 cycles
 SCF Done:  E(RPBE1PBE) =  -1187.14393750     A.U. after   10 cycles
 SCF Done:  E(RPBE1PBE) =  -1187.14394026     A.U. after    9 cycles
 SCF Done:  E(RPBE1PBE) =  -1187.14394177     A.U. after    9 cycles
 SCF Done:  E(RPBE1PBE) =  -1187.14394204     A.U. after    7 cycles
 SCF Done:  E(RPBE1PBE) =  -1187.14394214     A.U. after    7 cycles
 Optimization completed.
    -- Stationary point found.
 Normal termination of Gaussian 16 at Fri Jan 24 17:15:32 2025.

 ---------------------------------------------------------------------
 #P Geom=AllCheck Guess=TCheck SCRF=Check GenChk RPBE1PBE/def2SVP Freq
 ---------------------------------------------------------------------

 Structure from the checkpoint file:  "with_hydride.chk"
 ------------
 with_hydride
 ------------
 Charge = -1 Multiplicity = 1

 SCF Done:  E(RPBE1PBE) =  -1187.14394214     A.U. after    1 cycles

  Exact polarizability:     259.564       0.172     234.836       0.843      11.327     191.769
 Approx polarizability:     342.140      14.088     339.917      16.073      22.179     326.603

                      1                      2                      3
                      A                      A                      A
 Frequencies --     12.3111                26.0875                33.3023
 Red. masses --      1.0139                 9.4634                 4.4296
 Frc consts  --      0.0001                 0.0038                 0.0029
 IR Inten    --      0.2022                 0.2170                 0.4784

                      4                      5                      6
                      A                      A                      A
 Frequencies --     37.2985                42.3897                54.4623
 Red. masses --      5.0102                 4.5967                 4.3129
 Frc consts  --      0.0041                 0.0049                 0.0075
 IR Inten    --      0.4235                 0.3387                 0.7899

                      7                      8                      9
                      A                      A                      A
 Frequencies --     59.6333               107.6775               108.3056
 Red. masses --      4.1487                 1.1401                 4.1492
 Frc consts  --      0.0087                 0.0078                 0.0287
 IR Inten    --      1.1564                 0.1069                 0.6678

                     10                     11                     12
                      A                      A                      A
 Frequencies --    118.6352               147.2025               152.9864
 Red. masses --      3.3850                 1.5643                 6.8427
 Frc consts  --      0.0281                 0.0200                 0.0944
 IR Inten    --      0.4007                 0.5113                 0.4105

                     13                     14                     15
                      A                      A                      A
 Frequencies --    157.9848               190.6599               200.5955
 Red. masses --      8.8425                 2.5871                 4.4027
 Frc consts  --      0.1300                 0.0554                 0.1044
 IR Inten    --      0.4362                 4.0201                 0.2415

                     16                     17                     18
                      A                      A                      A
 Frequencies --    203.9361               214.8747               230.7820
 Red. masses --      4.4353                 5.1050                 2.4074
 Frc consts  --      0.1087                 0.1389                 0.0755
 IR Inten    --      1.8490                 1.6371                 0.1421

                     19                     20                     21
                      A                      A                      A
 Frequencies --    247.4384               282.2741               298.4902
 Red. masses --      1.0949                 2.7713                 6.6343
 Frc consts  --      0.0395                 0.1301                 0.3483
 IR Inten    --      0.3641                 0.9245                 0.5231

                     22                     23                     24
                      A                      A                      A
 Frequencies --    304.0240               331.2722               333.2029
 Red. masses --      7.3201                 5.5081                 4.9000
 Frc consts  --      0.3986                 0.3561                 0.3205
 IR Inten    --      0.0814                 0.1496                 0.8223

                     25                     26                     27
                      A                      A                      A
 Frequencies --    340.1324               372.8815               388.6252
 Red. masses --      2.5616                 4.5224                 6.0537
 Frc consts  --      0.1746                 0.3705                 0.5387
 IR Inten    --      2.8685                 6.6838                 2.1928

                     28                     29                     30
                      A                      A                      A
 Frequencies --    396.9698               461.5059               497.2778
 Red. masses --      6.4450                12.4419                 3.3755
 Frc consts  --      0.5984                 1.5613                 0.4918
 IR Inten    --      1.4366                 0.0344                 0.6059

                     31                     32                     33
                      A                      A                      A
 Frequencies --    503.4567               521.1292               537.8801
 Red. masses --      4.9718                 4.2862                 2.9739
 Frc consts  --      0.7425                 0.6858                 0.5069
 IR Inten    --      1.6768                 0.5872                 0.0797

                     34                     35                     36
                      A                      A                      A
 Frequencies --    541.4509               556.2673               570.5878
 Red. masses --      5.1385                 4.4984                 3.5717
 Frc consts  --      0.8876                 0.8201                 0.6851
 IR Inten    --      0.5831                 2.0009                 1.4311

                     37                     38                     39
                      A                      A                      A
 Frequencies --    590.3951               617.6808               635.4056
 Red. masses --      4.0058                 5.5926                 3.8214
 Frc consts  --      0.8227                 1.2572                 0.9090
 IR Inten    --      0.1296                 5.4580                 3.8876

                     40                     41                     42
                      A                      A                      A
 Frequencies --    652.8224               678.1724               694.1690
 Red. masses --      3.4742                 3.7282                 4.1345
 Frc consts  --      0.8724                 1.0102                 1.1738
 IR Inten    --      1.7993                 3.6014                 2.0456

                     43                     44                     45
                      A                      A                      A
 Frequencies --    707.1167               727.9605               741.1722
 Red. masses --      4.9330                 4.9938                 2.1314
 Frc consts  --      1.4533                 1.5592                 0.6898
 IR Inten    --      4.0151                 1.3351                 9.2132

                     46                     47                     48
                      A                      A                      A
 Frequencies --    752.9281               781.5855               790.1407
 Red. masses --      4.6185                 4.2079                 3.7654
 Frc consts  --      1.5426                 1.5145                 1.3851
 IR Inten    --     38.0165                 5.4743                10.5108

                     49                     50                     51
                      A                      A                      A
 Frequencies --    806.5456               827.0400               865.3246
 Red. masses --      1.7777                 3.6626                 1.2754
 Frc consts  --      0.6813                 1.4760                 0.5627
 IR Inten    --     11.2768                51.7129                 9.6625

                     52                     53                     54
                      A                      A                      A
 Frequencies --    887.8486               902.2167               917.3833
 Red. masses --      1.3092                 3.1194                 1.2981
 Frc consts  --      0.6081                 1.4960                 0.6437
 IR Inten    --      0.2298                64.7051                 0.5163

                     55                     56                     57
                      A                      A                      A
 Frequencies --    949.9714               950.2348               983.2878
 Red. masses --      1.8994                 1.9873                 2.3022
 Frc consts  --      1.0099                 1.0573                 1.3115
 IR Inten    --     20.2846                 3.0656                 1.0825

                     58                     59                     60
                      A                      A                      A
 Frequencies --    998.2347              1023.7160              1030.1937
 Red. masses --      4.7094                 1.5614                 1.8095
 Frc consts  --      2.7649                 0.9641                 1.1315
 IR Inten    --      6.4519                 3.0829                13.8165

                     61                     62                     63
                      A                      A                      A
 Frequencies --   1035.3248              1039.1986              1042.8009
 Red. masses --      1.9483                 2.1244                 1.6416
 Frc consts  --      1.2304                 1.3517                 1.0518
 IR Inten    --     13.2374                29.3122                 2.9812

                     64                     65                     66
                      A                      A                      A
 Frequencies --   1044.0216              1044.2974              1046.1205
 Red. masses --      1.6859                 2.3051                 1.5639
 Frc consts  --      1.0827                 1.4811                 1.0084
 IR Inten    --      5.8828                17.3513                 3.2161

                     67                     68                     69
                      A                      A                      A
 Frequencies --   1048.9491              1066.6781              1096.4092
 Red. masses --      1.8515                 1.7399                 1.7324
 Frc consts  --      1.2003                 1.1664                 1.2270
 IR Inten    --      1.2379                27.1687                50.7059

                     70                     71                     72
                      A                      A                      A
 Frequencies --   1130.1700              1142.6202              1151.1150
 Red. masses --      1.7341                 3.4802                 2.8802
 Frc consts  --      1.3050                 2.6770                 2.2486
 IR Inten    --     17.4270                39.3496                 9.4056

                     73                     74                     75
                      A                      A                      A
 Frequencies --   1194.5463              1211.5550              1215.6019
 Red. masses --      1.3593                 2.0221                 2.2113
 Frc consts  --      1.1428                 1.7488                 1.9252
 IR Inten    --      0.5428                 3.1471                28.3057

                     76                     77                     78
                      A                      A                      A
 Frequencies --   1245.5388              1261.6386              1265.7466
 Red. masses --      1.3721                 6.4507                 3.5911
 Frc consts  --      1.2542                 6.0496                 3.3898
 IR Inten    --      3.2319                 5.5159               115.9928

                     79                     80                     81
                      A                      A                      A
 Frequencies --   1325.5556              1347.4038              1352.9212
 Red. masses --      2.1746                 1.7346                 3.7953
 Frc consts  --      2.2512                 1.8555                 4.0930
 IR Inten    --      2.5228                13.8354                 7.9035

                     82                     83                     84
                      A                      A                      A
 Frequencies --   1358.5270              1379.2633              1387.7572
 Red. masses --      6.2687                 1.3050                 1.5550
 Frc consts  --      6.8166                 1.4627                 1.7644
 IR Inten    --     19.7589                 2.5338                 5.5382

                     85                     86                     87
                      A                      A                      A
 Frequencies --   1399.0077              1401.9622              1404.1428
 Red. masses --      8.4608                 1.9922                 2.1382
 Frc consts  --      9.7567                 2.3070                 2.4839
 IR Inten    --      2.8965                 3.0704                32.8349

                     88                     89                     90
                      A                      A                      A
 Frequencies --   1431.8438              1436.5727              1443.9571
 Red. masses --      1.2484                 1.2320                 1.2105
 Frc consts  --      1.5080                 1.4980                 1.4871
 IR Inten    --      5.2892                 4.5134                14.3096

                     91                     92                     93
                      A                      A                      A
 Frequencies --   1445.9669              1454.1622              1455.6782
 Red. masses --      1.0429                 1.0523                 1.1562
 Frc consts  --      1.2847                 1.3111                 1.4435
 IR Inten    --      5.5114                 4.6096                 5.8574

                     94                     95                     96
                      A                      A                      A
 Frequencies --   1457.7163              1462.4202              1481.7676
 Red. masses --      1.2287                 1.1043                 7.0897
 Frc consts  --      1.5383                 1.3915                 9.1715
 IR Inten    --      1.1068                 9.6232                16.3034

                     97                     98                     99
                      A                      A                      A
 Frequencies --   1489.0152              1506.7184              1536.3330
 Red. masses --      1.8671                 2.6096                 5.3489
 Frc consts  --      2.4390                 3.4905                 7.4384
 IR Inten    --     17.2676                24.0533               326.7416

                    100                    101                    102
                      A                      A                      A
 Frequencies --   1597.4840              1636.9671              1674.4638
 Red. masses --      6.4217                 8.0792                 9.9888
 Frc consts  --      9.6554                12.7555                16.5011
 IR Inten    --      5.0615                13.6306                73.0155

                    103                    104                    105
                      A                      A                      A
 Frequencies --   1678.0263              1683.9880              1688.9657
 Red. masses --      8.7040                 6.6995                 8.9320
 Frc consts  --     14.4399                11.1935                15.0120
 IR Inten    --      6.7756                 3.6028                 3.1385

                    106                    107                    108
                      A                      A                      A
 Frequencies --   2386.4039              3029.2194              3044.5689
 Red. masses --      1.0859                 1.0401                 1.0377
 Frc consts  --      3.6437                 5.6233                 5.6672
 IR Inten    --    144.6239                82.4841                60.7282

                    109                    110                    111
                      A                      A                      A
 Frequencies --   3046.2394              3050.6586              3106.2923
 Red. masses --      1.0391                 1.0393                 1.0986
 Frc consts  --      5.6812                 5.6986                 6.2458
 IR Inten    --     28.6185                52.1155                24.5124

                    112                    113                    114
                      A                      A                      A
 Frequencies --   3126.3325              3127.4989              3128.4594
 Red. masses --      1.1029                 1.1014                 1.1023
 Frc consts  --      6.3510                 6.3473                 6.3563
 IR Inten    --     15.5402                18.4939                20.3219

                    115                    116                    117
                      A                      A                      A
 Frequencies --   3137.8261              3144.8610              3150.4741
 Red. masses --      1.1034                 1.1018                 1.0910
 Frc consts  --      6.4009                 6.4206                 6.3801
 IR Inten    --     12.1122                 4.4489                66.0143

                    118                    119                    120
                      A                      A                      A
 Frequencies --   3152.4505              3165.6852              3194.6620
 Red. masses --      1.0908                 1.1009                 1.1019
 Frc consts  --      6.3872                 6.5001                 6.6261
 IR Inten    --     43.4633                 3.9630                 3.8110

                    121                    122                    123
                      A                      A                      A
 Frequencies --   3218.0627              3233.7349              3304.9784
 Red. masses --      1.0884                 1.0979                 1.0999
 Frc consts  --      6.6411                 6.7646                 7.0785
 IR Inten    --      5.7891                 7.5807                 1.4559

 - Thermochemistry -
 -------------------
 Temperature   298.150 Kelvin.  Pressure   1.00000 Atm.
 Atom     1 has atomic number  6 and mass  12.00000

 Molecular mass:   344.14335 amu.
 Principal axes and moments of inertia in atomic units:
                           1         2         3
     Eigenvalues --  7298.535489445.82509**********
           X            0.99597  -0.08915  -0.00968
           Y            0.08925   0.99596   0.01000
           Z            0.00874  -0.01083   0.99990
 This molecule is an asymmetric top.
 Rotational symmetry number  1.
 Warning -- assumption of classical behavior for rotation
           may cause significant error
 Rotational temperatures (Kelvin)      0.01187     0.00917     0.00645
 Rotational constants (GHZ):           0.24727     0.19106     0.13434
 Zero-point vibrational energy     867561.0 (Joules/Mol)
                                  207.35205 (Kcal/Mol)
 Warning -- explicit consideration of  38 degrees of freedom as
           vibrations may cause significant error
 Vibrational temperatures:     17.71    37.53    47.91    53.66    60.99
          (Kelvin)             78.36    85.80   154.92   155.83   170.69
                              211.79   220.11   227.30   274.32   288.61
                              293.42   309.16   332.04   356.01   406.13
                              429.46   437.42   476.63   479.40   489.37
                              536.49   559.14   571.15   664.00   715.47
                              724.36   749.79   773.89   779.03   800.34
                              820.95   849.45   888.70   914.21   939.27
                              975.74   998.75  1017.38  1047.37  1066.38
                             1083.30  1124.53  1136.84  1160.44  1189.93
                             1245.01  1277.42  1298.09  1319.91  1366.80
                             1367.18  1414.73  1436.24  1472.90  1482.22
                             1489.60  1495.17  1500.36  1502.11  1502.51
                             1505.13  1509.20  1534.71  1577.49  1626.06
                             1643.98  1656.20  1718.69  1743.16  1748.98
                             1792.05  1815.22  1821.13  1907.18  1938.61
                             1946.55  1954.62  1984.45  1996.67  2012.86
                             2017.11  2020.25  2060.10  2066.91  2077.53
                             2080.42  2092.22  2094.40  2097.33  2104.10
                             2131.93  2142.36  2167.83  2210.44  2298.42
                             2355.23  2409.18  2414.31  2422.88  2430.05
                             3433.50  4358.37  4380.46  4382.86  4389.22
                             4469.26  4498.10  4499.77  4501.16  4514.63
                             4524.75  4532.83  4535.67  4554.71  4596.41
                             4630.07  4652.62  4755.13

 Zero-point correction=                           0.330437 (Hartree/Particle)
 Thermal correction to Energy=                    0.354211
 Thermal correction to Enthalpy=                  0.355155
 Thermal correction to Gibbs Free Energy=         0.274361
 Sum of electronic and zero-point Energies=          -1186.813506
 Sum of electronic and thermal Energies=             -1186.789731
 Sum of electronic and thermal Enthalpies=           -1186.788787
 Sum of electronic and thermal Free Energies=        -1186.869581

                     E (Thermal)             CV                S
                      KCal/Mol        Cal/Mol-Kelvin    Cal/Mol-Kelvin
 Total                  222.271             88.986            170.046
 Electronic               0.000              0.000              0.000
 Translational            0.889              2.981             43.402
 Rotational               0.889              2.981             35.181
 Vibrational            220.493             83.024             91.464
 Vibration     1          0.593              1.987              7.598
 Vibration     2          0.593              1.985              6.107
 Vibration     3          0.594              1.983              5.622
 Vibration     4          0.594              1.982              5.398
 Vibration     5          0.595              1.980              5.144
 Vibration     6          0.596              1.976              4.648
 Vibration     7          0.597              1.974              4.469
 Vibration     8          0.606              1.943              3.310
 Vibration     9          0.606              1.943              3.299
 Vibration    10          0.609              1.934              3.122
 Vibration    11          0.617              1.906              2.708
 Vibration    12          0.619              1.899              2.635
 Vibration    13          0.621              1.894              2.574
 Vibration    14          0.634              1.853              2.221
 Vibration    15          0.638              1.839              2.128
 Vibration    16          0.640              1.834              2.097
 Vibration    17          0.645              1.818              2.002
 Vibration    18          0.652              1.794              1.873
 Vibration    19          0.661              1.767              1.749
 Vibration    20          0.681              1.706              1.520
 Vibration    21          0.692              1.677              1.425
 Vibration    22          0.695              1.666              1.395
 Vibration    23          0.714              1.613              1.254
 Vibration    24          0.715              1.609              1.245
 Vibration    25          0.720              1.595              1.212
 Vibration    26          0.744              1.528              1.068
 Vibration    27          0.757              1.494              1.005
 Vibration    28          0.763              1.477              0.974
 Vibration    29          0.819              1.335              0.762
 Vibration    30          0.853              1.256              0.665
 Vibration    31          0.859              1.242              0.650
 Vibration    32          0.876              1.203              0.607
 Vibration    33          0.893              1.166              0.570
 Vibration    34          0.897              1.158              0.562
 Vibration    35          0.912              1.126              0.531
 Vibration    36          0.927              1.095              0.503
 Vibration    37          0.948              1.052              0.466
 Vibration    38          0.977              0.995              0.420

                           ! Non-Optimized Parameters !
 Normal termination of Gaussian 16 at Fri Jan 24 17:24:46 2025.
 Gaussian 16:  ES64L-G16RevC.01  3-Jul-2019

 ----------------------------------------------------------------------
 #p def2tzvp pbe1pbe integral=ultrafinegrid geom=allcheck guess=read em
 =gd3bj
 ----------------------------------------------------------------------

 Structure from the checkpoint file:  "with_hydride.chk"
 ------------
 with_hydride
 ------------
 Charge = -1 Multiplicity = 1

                         Standard orientation:
 ---------------------------------------------------------------------
 Center     Atomic      Atomic             Coordinates (Angstroms)
 Number     Number       Type             X           Y           Z
 ---------------------------------------------------------------------
      1          6           0       -0.958833    2.505819   -1.752233
      2          6           0       -0.795127    1.596873   -0.750715
      3          5           0       -0.063902    0.156477   -0.830480
      4          6           0        1.519903    0.028733   -0.424473
      5          6           0        2.206240   -1.148779   -0.823354
      6          6           0        1.491356   -2.260331   -1.541249
      7          6           0        3.569174   -1.324335   -0.557161
      8          6           0        4.319313   -0.361987    0.116032
      9          6           0        5.773797   -0.577351    0.429127
     10          6           0        3.650242    0.791742    0.519822
     11          6           0        2.286915    0.996566    0.269676
     12          6           0        1.683248    2.276225    0.781744
     13          6           0       -0.983235   -0.890978    0.031921
     14          6           0       -0.939646   -0.961343    1.428831
     15          9           0       -0.087388   -0.170022    2.090932
     16          6           0       -1.723709   -1.812245    2.199674
     17          6           0       -2.629841   -2.660965    1.563851
     18          6           0       -2.714859   -2.623264    0.182842
     19          9           0       -3.576058   -3.425891   -0.462334
     20          6           0       -1.907774   -1.751995   -0.554226
     21          9           0       -2.063283   -1.787434   -1.881625
     22          7           0       -1.466367    2.127353    0.363112
     23          6           0       -1.949640    3.264318   -0.011120
     24          6           0       -2.743696    4.230498    0.786699
     25          8           0       -1.683233    3.577188   -1.294346
     26          1           0       -0.649309    2.538450   -2.792784
     27          1           0        0.736772   -2.733695   -0.892666
     28          1           0        2.195528   -3.040683   -1.869130
     29          1           0        0.936096   -1.881829   -2.412350
     30          1           0        4.058319   -2.247743   -0.889989
     31          1           0        6.267096   -1.190790   -0.341593
     32          1           0        5.911088   -1.099569    1.393050
     33          1           0        6.317761    0.377795    0.500179
     34          1           0        4.207177    1.567777    1.058610
     35          1           0        2.405114    2.823235    1.408884
     36          1           0        1.376562    2.938191   -0.043277
     37          1           0        0.776652    2.080943    1.370389
     38          1           0       -1.619134   -1.797784    3.286090
     39          1           0       -3.270392   -3.347715    2.120461
     40          1           0       -2.234991    5.205400    0.861160
     41          1           0       -2.876775    3.819271    1.794565
     42          1           0       -3.734079    4.407501    0.336593
     43          1           0       -0.135957   -0.163194   -2.019691
 ---------------------------------------------------------------------

 SCF Done:  E(RPBE1PBE) =  -1188.44843610     A.U. after   12 cycles

 The electronic state is 1-A.
 Alpha  occ. eigenvalues --  -24.67371 -24.65707 -24.64743 -19.15395 -14.24144
 Alpha  occ. eigenvalues --  -10.18968 -10.18543 -10.18283 -10.17972 -10.13477
 Alpha  occ. eigenvalues --  -10.13211 -10.12378 -10.11727 -10.11577 -10.10387
 Alpha  occ. eigenvalues --  -10.09505 -10.09465 -10.09038 -10.09035 -10.08780
 Alpha  occ. eigenvalues --  -10.08716 -10.08354 -10.07901 -10.06775  -6.56803
 Alpha  occ. eigenvalues --   -1.15519  -1.13467  -1.12886  -1.03323  -0.80777
 Alpha  occ. eigenvalues --   -0.76896  -0.74949  -0.69467  -0.67622  -0.66757
 Alpha  occ. eigenvalues --   -0.65824  -0.64752  -0.60400  -0.59580  -0.56408
 Alpha  occ. eigenvalues --   -0.56322  -0.53910  -0.52266  -0.50658  -0.46466
 Alpha  occ. eigenvalues --   -0.45829  -0.45524  -0.45080  -0.44369  -0.42684
 Alpha  occ. eigenvalues --   -0.40996  -0.39027  -0.38860  -0.37933  -0.37642
 Alpha  occ. eigenvalues --   -0.36241  -0.35682  -0.35125  -0.34694  -0.34301
 Alpha  occ. eigenvalues --   -0.34045  -0.32574  -0.32511  -0.31867  -0.31183
 Alpha  occ. eigenvalues --   -0.30759  -0.30080  -0.29712  -0.29535  -0.28660
 Alpha  occ. eigenvalues --   -0.28597  -0.28466  -0.27584  -0.26807  -0.25886
 Alpha  occ. eigenvalues --   -0.24776  -0.24362  -0.24263  -0.21759  -0.21177
 Alpha  occ. eigenvalues --   -0.20283  -0.19379  -0.17383  -0.16092  -0.15168
 Alpha  occ. eigenvalues --   -0.13247  -0.12344  -0.11506  -0.10594  -0.09762
 Alpha virt. eigenvalues --    0.10852   0.12801   0.12974   0.13099   0.13483
 Alpha virt. eigenvalues --    0.14401   0.14835   0.15949   0.17375   0.18203
 Alpha virt. eigenvalues --    0.18400   0.18751   0.19031   0.20186   0.20788

 Mulliken charges:
               1
     1  C   -0.087750
     2  C    0.011982
     3  B   -0.237960
     4  C   -0.084697
     5  C    0.230545
     6  C   -0.347918
     7  C   -0.427907
     8  C    0.308725
     9  C   -0.419414
    10  C   -0.437263
    11  C    0.189017
    12  C   -0.329901
    13  C   -0.191954
    14  C    0.356273
    15  F   -0.205720
    16  C   -0.260362
    17  C   -0.189346
    18  C    0.169842
    19  F   -0.211605
    20  C    0.264595
    21  F   -0.196411
    22  N   -0.262764
    23  C    0.229811
    24  C   -0.405574
    25  O   -0.224394
    26  H    0.111917
    27  H    0.120311
    28  H    0.083805
    29  H    0.133478
    30  H    0.047750
    31  H    0.110359
    32  H    0.111503
    33  H    0.110831
    34  H    0.048485
    35  H    0.084046
    36  H    0.110029
    37  H    0.142608
    38  H    0.089687
    39  H    0.093917
    40  H    0.118667
    41  H    0.144290
    42  H    0.118872
    43  H   -0.020405
 Sum of Mulliken charges =  -1.00000

 Dipole moment (field-independent basis, Debye):
    X=             -0.3866    Y=              1.0595    Z=              2.1023  Tot=              2.3858
 Quadrupole moment (field-independent basis, Debye-Ang):
   XX=           -176.4057   YY=           -163.0952   ZZ=           -155.9203
   XY=             -5.6331   XZ=             -4.6656   YZ=             -1.8646

 Normal termination of Gaussian 16 at Fri Jan 24 17:31:55 2025.
