 Gaussian 16, Revision C.01,

 -------------------------------------------------------------------
 #p opt freq=noraman def2svp pbe1pbe em=gd3bj integral=ultrafinegrid
 -------------------------------------------------------------------

 -------
 neutral
 -------
 Symbolic Z-matrix:
 Charge =  0 Multiplicity = 1

 SCF Done:  E(RPBE1PBE) =  -2107.37250184     A.U. after   15 cycles
 SCF Done:  E(RPBE1PBE) =  -2107.40613465     A.U. after   13 cycles
 SCF Done:  E(RPBE1PBE) =  -2107.41443465     A.U. after   13 cycles
 SCF Done:  E(RPBE1PBE) =  -2107.41375534     A.U. after   13 cycles
 SCF Done:  E(RPBE1PBE) =  -2107.41591671     A.U. after   13 cycles
 SCF Done:  E(RPBE1PBE) =  -2107.41467643     A.U. after   13 cycles
 SCF Done:  E(RPBE1PBE) =  -2107.41647530     A.U. after   13 cycles
 SCF Done:  E(RPBE1PBE) =  -2107.41648561     A.U. after   12 cycles
 SCF Done:  E(RPBE1PBE) =  -2107.41690127     A.U. after   13 cycles
 SCF Done:  E(RPBE1PBE) =  -2107.41769768     A.U. after   12 cycles
 SCF Done:  E(RPBE1PBE) =  -2107.41872207     A.U. after    9 cycles
 SCF Done:  E(RPBE1PBE) =  -2107.41872273     A.U. after    7 cycles
 SCF Done:  E(RPBE1PBE) =  -2107.41872327     A.U. after    7 cycles
 SCF Done:  E(RPBE1PBE) =  -2107.41872366     A.U. after    7 cycles
 SCF Done:  E(RPBE1PBE) =  -2107.41872402     A.U. after    7 cycles
 SCF Done:  E(RPBE1PBE) =  -2107.41872420     A.U. after    7 cycles
 SCF Done:  E(RPBE1PBE) =  -2107.41872426     A.U. after    6 cycles
 SCF Done:  E(RPBE1PBE) =  -2107.41872430     A.U. after    6 cycles
 Optimization completed.
    -- Stationary point found.
 Normal termination of Gaussian 16 at Thu Jan 23 18:42:52 2025.

 ---------------------------------------------------------------------
 #P Geom=AllCheck Guess=TCheck SCRF=Check GenChk RPBE1PBE/def2SVP Freq
 ---------------------------------------------------------------------

 Structure from the checkpoint file:  "neutral.chk"
 -------
 neutral
 -------
 Charge =  0 Multiplicity = 1

 SCF Done:  E(RPBE1PBE) =  -2107.41872430     A.U. after    1 cycles

  Exact polarizability:     280.342      -7.698     249.438       8.336       4.156     189.857
 Approx polarizability:     378.031     -28.119     360.338       7.645      -4.894     301.136

                      1                      2                      3
                      A                      A                      A
 Frequencies --     10.7861                17.2434                22.8594
 Red. masses --     17.6300                 5.7881                 6.1923
 Frc consts  --      0.0012                 0.0010                 0.0019
 IR Inten    --      0.0084                 0.0173                 0.0692

                      4                      5                      6
                      A                      A                      A
 Frequencies --     24.8381                32.0316                37.1866
 Red. masses --      7.7574                 9.0296                 3.9002
 Frc consts  --      0.0028                 0.0055                 0.0032
 IR Inten    --      0.2455                 0.2114                 0.5890

                      7                      8                      9
                      A                      A                      A
 Frequencies --     51.6643                56.4352                60.9579
 Red. masses --      6.2052                 5.1937                 3.8925
 Frc consts  --      0.0098                 0.0097                 0.0085
 IR Inten    --      0.0166                 0.1812                 0.0136

                     10                     11                     12
                      A                      A                      A
 Frequencies --     72.6574                77.7354                84.1005
 Red. masses --      4.9268                 5.0566                 3.0619
 Frc consts  --      0.0153                 0.0180                 0.0128
 IR Inten    --      0.3090                 0.3355                 0.3761

                     13                     14                     15
                      A                      A                      A
 Frequencies --    101.6313               111.1188               115.3998
 Red. masses --      5.9612                11.8037                 2.3438
 Frc consts  --      0.0363                 0.0859                 0.0184
 IR Inten    --      0.8750                 1.2087                 1.7112

                     16                     17                     18
                      A                      A                      A
 Frequencies --    124.4889               132.7612               147.6389
 Red. masses --      3.2599                 2.5189                 4.3428
 Frc consts  --      0.0298                 0.0262                 0.0558
 IR Inten    --      2.0176                 0.3853                 0.3667

                     19                     20                     21
                      A                      A                      A
 Frequencies --    151.2515               167.9001               173.9852
 Red. masses --      4.7022                 3.6423                 5.4212
 Frc consts  --      0.0634                 0.0605                 0.0967
 IR Inten    --      0.5299                 0.1798                 0.2922

                     22                     23                     24
                      A                      A                      A
 Frequencies --    196.6449               215.3871               251.2516
 Red. masses --      4.4861                 3.4851                 3.1954
 Frc consts  --      0.1022                 0.0953                 0.1188
 IR Inten    --      0.6100                 1.3377                 0.1160

                     25                     26                     27
                      A                      A                      A
 Frequencies --    253.1370               258.8337               265.6748
 Red. masses --      1.4440                 4.7995                15.8969
 Frc consts  --      0.0545                 0.1894                 0.6611
 IR Inten    --      0.0380                 0.4963                 0.4346

                     28                     29                     30
                      A                      A                      A
 Frequencies --    286.1109               304.0236               307.9975
 Red. masses --      3.6846                12.5246                 4.2129
 Frc consts  --      0.1777                 0.6821                 0.2355
 IR Inten    --      0.7597                 2.4536                 1.4616

                     31                     32                     33
                      A                      A                      A
 Frequencies --    315.7161               321.2101               350.8167
 Red. masses --      4.6185                 6.4390                 4.3170
 Frc consts  --      0.2712                 0.3914                 0.3130
 IR Inten    --      0.8313                 0.8132                 0.9779

                     34                     35                     36
                      A                      A                      A
 Frequencies --    374.5526               400.8163               412.6861
 Red. masses --      9.5754                 5.4438                 2.8591
 Frc consts  --      0.7915                 0.5153                 0.2869
 IR Inten    --      0.6335                 2.1353                 1.3099

                     37                     38                     39
                      A                      A                      A
 Frequencies --    433.4091               443.1695               473.6898
 Red. masses --      5.8838                 7.1151                 9.5803
 Frc consts  --      0.6512                 0.8233                 1.2665
 IR Inten    --      8.6453                 7.2016                12.5864

                     40                     41                     42
                      A                      A                      A
 Frequencies --    480.2402               514.1921               521.3699
 Red. masses --      7.6002                12.0779                 5.1369
 Frc consts  --      1.0327                 1.8814                 0.8227
 IR Inten    --     11.8803                 0.6325                 1.8445

                     43                     44                     45
                      A                      A                      A
 Frequencies --    521.6814               552.2914               575.3503
 Red. masses --      7.3588                 6.2215                10.6304
 Frc consts  --      1.1800                 1.1181                 2.0733
 IR Inten    --      0.3014                 0.5913                 3.3170

                     46                     47                     48
                      A                      A                      A
 Frequencies --    585.8753               591.8069               601.7615
 Red. masses --     15.1965                13.3698                 9.1753
 Frc consts  --      3.0733                 2.7589                 1.9576
 IR Inten    --      0.9863                 3.1997                11.6180

                     49                     50                     51
                      A                      A                      A
 Frequencies --    636.3299               665.5476               686.2305
 Red. masses --      4.6946                 8.0320                 9.5451
 Frc consts  --      1.1200                 2.0962                 2.6483
 IR Inten    --      7.4205                 2.0048                10.2742

                     52                     53                     54
                      A                      A                      A
 Frequencies --    689.1186               695.3038               703.3867
 Red. masses --      8.0629                 5.3099                12.8145
 Frc consts  --      2.2559                 1.5125                 3.7354
 IR Inten    --      1.3735                 7.8339                44.2977

                     55                     56                     57
                      A                      A                      A
 Frequencies --    715.9464               732.2473               743.2994
 Red. masses --      7.0689                 6.9325                 1.0784
 Frc consts  --      2.1348                 2.1901                 0.3510
 IR Inten    --      2.5034                14.2546                 3.3400

                     58                     59                     60
                      A                      A                      A
 Frequencies --    757.9967               776.8926               791.8341
 Red. masses --     17.1347                 4.4335                 2.5586
 Frc consts  --      5.8004                 1.5766                 0.9452
 IR Inten    --      3.1465                16.3566                 9.7005

                     61                     62                     63
                      A                      A                      A
 Frequencies --    801.4051               820.6947               836.2925
 Red. masses --      1.8094                 1.3042                 2.1215
 Frc consts  --      0.6847                 0.5176                 0.8742
 IR Inten    --      4.8998                17.7968                13.2942

                     64                     65                     66
                      A                      A                      A
 Frequencies --    867.9056               880.6840               889.9830
 Red. masses --      3.7080                11.5397                 4.5175
 Frc consts  --      1.6457                 5.2733                 2.1082
 IR Inten    --     24.7290                 6.4771                43.7784

                     67                     68                     69
                      A                      A                      A
 Frequencies --    913.9950               927.9732               939.9798
 Red. masses --      1.7213                 2.4299                 1.5875
 Frc consts  --      0.8472                 1.2328                 0.8264
 IR Inten    --      7.5314                21.1441                19.0958

                     70                     71                     72
                      A                      A                      A
 Frequencies --    943.7455               959.9094              1021.9422
 Red. masses --      1.5921                 1.3860                 1.5223
 Frc consts  --      0.8355                 0.7524                 0.9367
 IR Inten    --     29.0413                 0.3061                 6.2784

                     73                     74                     75
                      A                      A                      A
 Frequencies --   1035.5463              1036.4526              1046.0940
 Red. masses --      1.5259                 1.4774                 2.1474
 Frc consts  --      0.9641                 0.9351                 1.3845
 IR Inten    --     50.5869                 2.2957                 7.6965

                     76                     77                     78
                      A                      A                      A
 Frequencies --   1061.8600              1094.9901              1109.2595
 Red. masses --      1.9412                 2.0275                 2.3050
 Frc consts  --      1.2896                 1.4323                 1.6711
 IR Inten    --      1.3229                 2.1006                 3.5128

                     79                     80                     81
                      A                      A                      A
 Frequencies --   1127.4680              1141.1819              1147.3059
 Red. masses --      2.2328                 4.2684                 2.3657
 Frc consts  --      1.6723                 3.2751                 1.8347
 IR Inten    --      7.0387                 6.2059                11.1766

                     82                     83                     84
                      A                      A                      A
 Frequencies --   1148.9594              1190.1004              1193.3374
 Red. masses --      2.2172                 3.2486                 3.1646
 Frc consts  --      1.7245                 2.7109                 2.6552
 IR Inten    --      3.4500                 6.5787                 2.0221

                     85                     86                     87
                      A                      A                      A
 Frequencies --   1209.1996              1212.1044              1217.9347
 Red. masses --      3.4543                 2.7430                 6.1669
 Frc consts  --      2.9758                 2.3744                 5.3897
 IR Inten    --    124.3961                73.8720               179.3418

                     88                     89                     90
                      A                      A                      A
 Frequencies --   1232.1936              1236.0800              1244.8177
 Red. masses --      2.6845                 5.6509                11.1969
 Frc consts  --      2.4015                 5.0870                10.2225
 IR Inten    --    188.4081               148.1879               103.0776

                     91                     92                     93
                      A                      A                      A
 Frequencies --   1251.7966              1252.6157              1256.7138
 Red. masses --      1.4718                 5.6549                 3.6875
 Frc consts  --      1.3588                 5.2277                 3.4312
 IR Inten    --     15.2753               352.7504               192.7426

                     94                     95                     96
                      A                      A                      A
 Frequencies --   1281.5756              1289.4870              1306.1184
 Red. masses --      1.7465                 1.4026                 3.8079
 Frc consts  --      1.6900                 1.3741                 3.8274
 IR Inten    --     91.7512                41.4459               631.8168

                     97                     98                     99
                      A                      A                      A
 Frequencies --   1312.2808              1315.8413              1320.0758
 Red. masses --      1.2416                 1.5155                 3.0756
 Frc consts  --      1.2597                 1.5461                 3.1578
 IR Inten    --    100.5478               233.9345               385.1530

                    100                    101                    102
                      A                      A                      A
 Frequencies --   1327.1895              1348.8243              1375.1173
 Red. masses --      1.2157                 1.5460                 3.4515
 Frc consts  --      1.2617                 1.6572                 3.8453
 IR Inten    --      0.7023                 6.4398                75.9066

                    103                    104                    105
                      A                      A                      A
 Frequencies --   1395.0820              1396.7827              1401.1422
 Red. masses --      1.3698                 1.5782                11.2946
 Frc consts  --      1.5708                 1.8142                13.0643
 IR Inten    --      3.1134                24.9583                22.3804

                    106                    107                    108
                      A                      A                      A
 Frequencies --   1410.1089              1447.3510              1449.1755
 Red. masses --      1.7026                 1.0832                 2.5804
 Frc consts  --      1.9947                 1.3369                 3.1928
 IR Inten    --      1.4686                20.7779                27.3818

                    109                    110                    111
                      A                      A                      A
 Frequencies --   1450.8837              1452.6396              1462.3645
 Red. masses --      1.5042                 1.1459                 1.0625
 Frc consts  --      1.8656                 1.4246                 1.3387
 IR Inten    --     10.5848                 4.3619                 1.6723

                    112                    113                    114
                      A                      A                      A
 Frequencies --   1469.1321              1472.9378              1482.8785
 Red. masses --      1.0367                 1.0922                 1.0971
 Frc consts  --      1.3183                 1.3961                 1.4214
 IR Inten    --      8.3121                 0.9478                 6.3196

                    115                    116                    117
                      A                      A                      A
 Frequencies --   1490.3599              1529.0172              1549.8260
 Red. masses --      5.8109                 6.0852                 7.3465
 Frc consts  --      7.6046                 8.3820                10.3967
 IR Inten    --      7.7553                12.7518               118.7979

                    118                    119                    120
                      A                      A                      A
 Frequencies --   1566.8541              1661.5801              1705.6256
 Red. masses --      9.3027                 9.4740                 6.8135
 Frc consts  --     13.4561                15.4109                11.6786
 IR Inten    --      1.0663                21.5204               226.6919

                    121                    122                    123
                      A                      A                      A
 Frequencies --   1711.4966              3038.1635              3042.6587
 Red. masses --      7.2995                 1.0627                 1.0620
 Frc consts  --     12.5978                 5.7792                 5.7926
 IR Inten    --     20.3011                11.4152                 7.1813

                    124                    125                    126
                      A                      A                      A
 Frequencies --   3050.2178              3052.0728              3062.1860
 Red. masses --      1.0588                 1.0425                 1.0400
 Frc consts  --      5.8038                 5.7217                 5.7459
 IR Inten    --     29.8421                41.2627                13.0589

                    127                    128                    129
                      A                      A                      A
 Frequencies --   3084.1523              3099.1861              3115.0470
 Red. masses --      1.1012                 1.1025                 1.1047
 Frc consts  --      6.1712                 6.2389                 6.3158
 IR Inten    --      4.1886                 3.6544                23.6124

                    130                    131                    132
                      A                      A                      A
 Frequencies --   3141.8260              3142.4616              3147.5501
 Red. masses --      1.1023                 1.1037                 1.0921
 Frc consts  --      6.4106                 6.4217                 6.3745
 IR Inten    --      4.7221                29.0219                 7.9807

                    133                    134                    135
                      A                      A                      A
 Frequencies --   3150.6874              3156.2857              3197.6918
 Red. masses --      1.1036                 1.0876                 1.1017
 Frc consts  --      6.4546                 6.3835                 6.6371
 IR Inten    --     24.5275                14.6110                 0.4215

                    136                    137                    138
                      A                      A                      A
 Frequencies --   3237.6588              3242.8562              3244.5981
 Red. masses --      1.0960                 1.0933                 1.0931
 Frc consts  --      6.7688                 6.7742                 6.7798
 IR Inten    --      0.0417                 1.8432                 2.5864

 - Thermochemistry -
 -------------------
 Temperature   298.150 Kelvin.  Pressure   1.00000 Atm.
 Atom     1 has atomic number  6 and mass  12.00000

 Molecular mass:   473.10311 amu.
 Principal axes and moments of inertia in atomic units:
                           1         2         3
     Eigenvalues --  ******************************
           X            0.99783   0.06409   0.01489
           Y           -0.06435   0.99777   0.01770
           Z           -0.01373  -0.01862   0.99973
 This molecule is an asymmetric top.
 Rotational symmetry number  1.
 Warning -- assumption of classical behavior for rotation
           may cause significant error
 Rotational temperatures (Kelvin)      0.00722     0.00471     0.00349
 Rotational constants (GHZ):           0.15045     0.09809     0.07271
 Zero-point vibrational energy     897295.4 (Joules/Mol)
                                  214.45874 (Kcal/Mol)
 Warning -- explicit consideration of  48 degrees of freedom as
           vibrations may cause significant error
 Vibrational temperatures:     15.52    24.81    32.89    35.74    46.09
          (Kelvin)             53.50    74.33    81.20    87.70   104.54
                              111.84   121.00   146.22   159.88   166.03
                              179.11   191.01   212.42   217.62   241.57
                              250.33   282.93   309.89   361.49   364.21
                              372.40   382.25   411.65   437.42   443.14
                              454.25   462.15   504.75   538.90   576.69
                              593.76   623.58   637.62   681.53   690.96
                              739.81   750.14   750.58   794.62   827.80
                              842.94   851.48   865.80   915.54   957.57
                              987.33   991.49  1000.39  1012.02  1030.09
                             1053.54  1069.44  1090.59  1117.78  1139.27
                             1153.04  1180.80  1203.24  1248.72  1267.11
                             1280.49  1315.03  1335.15  1352.42  1357.84
                             1381.10  1470.35  1489.92  1491.22  1505.10
                             1527.78  1575.45  1595.98  1622.18  1641.91
                             1650.72  1653.10  1712.29  1716.95  1739.77
                             1743.95  1752.34  1772.85  1778.44  1791.02
                             1801.06  1802.23  1808.13  1843.90  1855.28
                             1879.21  1888.08  1893.20  1899.29  1909.53
                             1940.66  1978.49  2007.21  2009.66  2015.93
                             2028.83  2082.42  2085.04  2087.50  2090.02
                             2104.02  2113.75  2119.23  2133.53  2144.30
                             2199.91  2229.85  2254.35  2390.64  2454.01
                             2462.46  4371.24  4377.71  4388.58  4391.25
                             4405.80  4437.41  4459.04  4481.86  4520.39
                             4521.30  4528.62  4533.14  4541.19  4600.77
                             4658.27  4665.75  4668.25

 Zero-point correction=                           0.341762 (Hartree/Particle)
 Thermal correction to Energy=                    0.372206
 Thermal correction to Enthalpy=                  0.373150
 Thermal correction to Gibbs Free Energy=         0.274647
 Sum of electronic and zero-point Energies=          -2107.076963
 Sum of electronic and thermal Energies=             -2107.046518
 Sum of electronic and thermal Enthalpies=           -2107.045574
 Sum of electronic and thermal Free Energies=        -2107.144078

                     E (Thermal)             CV                S
                      KCal/Mol        Cal/Mol-Kelvin    Cal/Mol-Kelvin
 Total                  233.563            109.604            207.318
 Electronic               0.000              0.000              0.000
 Translational            0.889              2.981             44.351
 Rotational               0.889              2.981             36.947
 Vibrational            231.785            103.642            126.020
 Vibration     1          0.593              1.987              7.861
 Vibration     2          0.593              1.986              6.929
 Vibration     3          0.593              1.985              6.369
 Vibration     4          0.593              1.985              6.204
 Vibration     5          0.594              1.983              5.699
 Vibration     6          0.594              1.982              5.404
 Vibration     7          0.596              1.977              4.753
 Vibration     8          0.596              1.975              4.578
 Vibration     9          0.597              1.973              4.426
 Vibration    10          0.599              1.967              4.080
 Vibration    11          0.599              1.964              3.947
 Vibration    12          0.601              1.960              3.793
 Vibration    13          0.604              1.948              3.423
 Vibration    14          0.607              1.940              3.249
 Vibration    15          0.608              1.937              3.176
 Vibration    16          0.610              1.929              3.029
 Vibration    17          0.613              1.921              2.906
 Vibration    18          0.617              1.905              2.702
 Vibration    19          0.619              1.901              2.656
 Vibration    20          0.625              1.882              2.459
 Vibration    21          0.627              1.874              2.392
 Vibration    22          0.636              1.845              2.164
 Vibration    23          0.645              1.818              1.998
 Vibration    24          0.663              1.761              1.722
 Vibration    25          0.664              1.757              1.709
 Vibration    26          0.668              1.748              1.670
 Vibration    27          0.672              1.736              1.624
 Vibration    28          0.684              1.699              1.497
 Vibration    29          0.695              1.666              1.395
 Vibration    30          0.698              1.658              1.373
 Vibration    31          0.703              1.644              1.332
 Vibration    32          0.707              1.633              1.304
 Vibration    33          0.728              1.574              1.163
 Vibration    34          0.746              1.524              1.061
 Vibration    35          0.767              1.468              0.960
 Vibration    36          0.776              1.443              0.917
 Vibration    37          0.794              1.397              0.848
 Vibration    38          0.803              1.376              0.817
 Vibration    39          0.830              1.308              0.727
 Vibration    40          0.837              1.294              0.709
 Vibration    41          0.869              1.219              0.624
 Vibration    42          0.876              1.203              0.607
 Vibration    43          0.877              1.202              0.606
 Vibration    44          0.908              1.135              0.539
 Vibration    45          0.932              1.085              0.494
 Vibration    46          0.943              1.062              0.475
 Vibration    47          0.949              1.049              0.464
 Vibration    48          0.960              1.028              0.447

                           ! Non-Optimized Parameters !
 Normal termination of Gaussian 16 at Thu Jan 23 18:53:58 2025.
 Gaussian 16:  ES64L-G16RevC.01  3-Jul-2019

 ----------------------------------------------------------------------
 #p def2tzvp pbe1pbe integral=ultrafinegrid geom=allcheck guess=read em
 =gd3bj
 ----------------------------------------------------------------------

 Structure from the checkpoint file:  "neutral.chk"
 -------
 neutral
 -------
 Charge =  0 Multiplicity = 1

                         Standard orientation:
 ---------------------------------------------------------------------
 Center     Atomic      Atomic             Coordinates (Angstroms)
 Number     Number       Type             X           Y           Z
 ---------------------------------------------------------------------
      1          6           0       -0.424874    3.077194    2.459782
      2          7           0       -0.207931    1.981044    1.819030
      3          6           0       -0.943389    1.908914    0.649240
      4          5           0       -0.736205    0.665308   -0.263346
      5          6           0       -1.816261    0.017302   -1.150934
      6          6           0       -3.111945    0.008230   -0.782109
      7          6           0       -4.185643   -0.823241   -1.394485
      8          6           0       -4.622698   -1.957071   -0.462689
      9          6           0       -5.722503   -2.830128   -1.049675
     10          6           0       -6.144066   -3.961079   -0.125698
     11          6           0        0.701249   -0.012900   -0.192242
     12          6           0        0.927940   -1.223099    0.483192
     13          6           0       -0.222051   -1.957346    1.126676
     14          9           0       -0.896559   -2.690212    0.228512
     15          9           0       -1.098632   -1.117939    1.684357
     16          9           0        0.193538   -2.795139    2.078106
     17          6           0        2.193665   -1.798253    0.553745
     18          6           0        3.272969   -1.180393   -0.069605
     19          6           0        4.649563   -1.776064    0.041141
     20          9           0        4.601429   -3.106717    0.139153
     21          9           0        5.290323   -1.323892    1.123673
     22          9           0        5.402076   -1.471014   -1.018674
     23          6           0        3.080528    0.010840   -0.760400
     24          6           0        1.812553    0.583421   -0.808917
     25          6           0        1.651840    1.899098   -1.525689
     26          9           0        2.577004    2.067756   -2.471560
     27          9           0        0.450546    1.980499   -2.124395
     28          9           0        1.742896    2.937800   -0.693976
     29          6           0       -1.727028    3.025361    0.398945
     30          6           0       -2.589133    3.355081   -0.771823
     31         16           0       -1.530525    4.165135    1.681198
     32          1           0        0.037316    3.340995    3.414424
     33          1           0       -1.527032   -0.620899   -1.995777
     34          1           0       -3.404898    0.593822    0.100838
     35          1           0       -5.061929   -0.187564   -1.618582
     36          1           0       -3.835995   -1.242740   -2.352290
     37          1           0       -4.962593   -1.530823    0.498276
     38          1           0       -3.740738   -2.574649   -0.220272
     39          1           0       -6.596620   -2.199750   -1.291731
     40          1           0       -5.378069   -3.245785   -2.013086
     41          1           0       -6.935895   -4.578864   -0.575532
     42          1           0       -5.294874   -4.623778    0.105591
     43          1           0       -6.527668   -3.573360    0.831712
     44          1           0        2.336915   -2.735372    1.093189
     45          1           0        3.917480    0.491572   -1.268775
     46          1           0       -2.365441    4.361927   -1.155415
     47          1           0       -2.424433    2.631185   -1.578369
     48          1           0       -3.658469    3.332603   -0.507347
 ---------------------------------------------------------------------

 SCF Done:  E(RPBE1PBE) =  -2109.49569090     A.U. after   11 cycles

 The electronic state is 1-A.
 Alpha  occ. eigenvalues --  -89.06380 -24.81647 -24.81413 -24.81114 -24.81091
 Alpha  occ. eigenvalues --  -24.81091 -24.81009 -24.80881 -24.80711 -24.80644
 Alpha  occ. eigenvalues --  -14.39000 -10.48236 -10.48086 -10.47938 -10.28949
 Alpha  occ. eigenvalues --  -10.28113 -10.27626 -10.27591 -10.27479 -10.27125
 Alpha  occ. eigenvalues --  -10.27062 -10.26178 -10.25089 -10.24620 -10.23996
 Alpha  occ. eigenvalues --  -10.23382 -10.22689 -10.22406 -10.21411 -10.21372
 Alpha  occ. eigenvalues --   -8.04263  -6.79225  -5.97811  -5.97484  -5.97322
 Alpha  occ. eigenvalues --   -1.36437  -1.36168  -1.36071  -1.27419  -1.27112
 Alpha  occ. eigenvalues --   -1.27043  -1.26968  -1.26712  -1.26573  -0.99509
 Alpha  occ. eigenvalues --   -0.93349  -0.84984  -0.84597  -0.84475  -0.84342
 Alpha  occ. eigenvalues --   -0.80611  -0.78374  -0.75167  -0.74702  -0.74158
 Alpha  occ. eigenvalues --   -0.73736  -0.72415  -0.67790  -0.67671  -0.66494
 Alpha  occ. eigenvalues --   -0.64724  -0.63134  -0.62634  -0.62364  -0.62283
 Alpha  occ. eigenvalues --   -0.62177  -0.61972  -0.60427  -0.60190  -0.59283
 Alpha  occ. eigenvalues --   -0.58044  -0.56157  -0.55982  -0.53815  -0.52163
 Alpha  occ. eigenvalues --   -0.50939  -0.50435  -0.50224  -0.49971  -0.49945
 Alpha  occ. eigenvalues --   -0.49732  -0.49459  -0.49315  -0.48238  -0.46723
 Alpha  occ. eigenvalues --   -0.46604  -0.46153  -0.46075  -0.45927  -0.45655
 Alpha  occ. eigenvalues --   -0.45492  -0.45151  -0.44801  -0.44769  -0.44217
 Alpha  occ. eigenvalues --   -0.44091  -0.43868  -0.43763  -0.43452  -0.43173
 Alpha  occ. eigenvalues --   -0.42054  -0.41810  -0.41344  -0.40745  -0.40574
 Alpha  occ. eigenvalues --   -0.39870  -0.38927  -0.38484  -0.37245  -0.36279
 Alpha  occ. eigenvalues --   -0.35343  -0.34868  -0.33943  -0.33530  -0.30696
 Alpha  occ. eigenvalues --   -0.30090  -0.29781  -0.28915  -0.28513  -0.26212
 Alpha virt. eigenvalues --   -0.06963  -0.05461  -0.05412  -0.02634   0.01068
 Alpha virt. eigenvalues --    0.01715   0.03707   0.04672   0.05488   0.06611
 Alpha virt. eigenvalues --    0.06979   0.07507   0.07874   0.07998   0.08502

 Mulliken charges:
               1
     1  C   -0.092901
     2  N   -0.195507
     3  C    0.056055
     4  B   -0.064787
     5  C   -0.323653
     6  C    0.076512
     7  C   -0.157912
     8  C   -0.263444
     9  C   -0.160620
    10  C   -0.359585
    11  C   -0.022736
    12  C    0.095149
    13  C    0.498641
    14  F   -0.162218
    15  F   -0.148180
    16  F   -0.157584
    17  C   -0.367939
    18  C    0.196374
    19  C    0.442015
    20  F   -0.159900
    21  F   -0.153428
    22  F   -0.159990
    23  C   -0.369576
    24  C    0.109557
    25  C    0.479830
    26  F   -0.156227
    27  F   -0.157214
    28  F   -0.147656
    29  C   -0.010749
    30  C   -0.354281
    31  S    0.033895
    32  H    0.154573
    33  H    0.106965
    34  H    0.130771
    35  H    0.106025
    36  H    0.110706
    37  H    0.101522
    38  H    0.119619
    39  H    0.094648
    40  H    0.098049
    41  H    0.127670
    42  H    0.119561
    43  H    0.115477
    44  H    0.160497
    45  H    0.160836
    46  H    0.147634
    47  H    0.165172
    48  H    0.138331
 Sum of Mulliken charges =  -0.00000

 Dipole moment (field-independent basis, Debye):
    X=             -3.6353    Y=              1.3762    Z=             -0.7145  Tot=              3.9522
 Quadrupole moment (field-independent basis, Debye-Ang):
   XX=           -179.3199   YY=           -179.2190   ZZ=           -181.9556
   XY=             -0.7192   XZ=              3.1608   YZ=              5.1625

 Normal termination of Gaussian 16 at Thu Jan 23 19:03:21 2025.
