 Gaussian 16, Revision C.01,

 -------------------------------------------------------------------
 #p opt freq=noraman def2svp pbe1pbe em=gd3bj integral=ultrafinegrid
 -------------------------------------------------------------------

 -----------
 with_proton
 -----------
 Symbolic Z-matrix:
 Charge =  1 Multiplicity = 1

 SCF Done:  E(RPBE1PBE) =  -2107.75041036     A.U. after   17 cycles
 SCF Done:  E(RPBE1PBE) =  -2107.78695555     A.U. after   12 cycles
 SCF Done:  E(RPBE1PBE) =  -2107.79520911     A.U. after   13 cycles
 SCF Done:  E(RPBE1PBE) =  -2107.78964159     A.U. after   14 cycles
 SCF Done:  E(RPBE1PBE) =  -2107.79402293     A.U. after   13 cycles
 SCF Done:  E(RPBE1PBE) =  -2107.79679143     A.U. after   11 cycles
 SCF Done:  E(RPBE1PBE) =  -2107.79704445     A.U. after   12 cycles
 SCF Done:  E(RPBE1PBE) =  -2107.79809242     A.U. after   13 cycles
 SCF Done:  E(RPBE1PBE) =  -2107.79509331     A.U. after   13 cycles
 SCF Done:  E(RPBE1PBE) =  -2107.79884683     A.U. after   12 cycles
 SCF Done:  E(RPBE1PBE) =  -2107.80036935     A.U. after   10 cycles
 SCF Done:  E(RPBE1PBE) =  -2107.80038933     A.U. after    9 cycles
 SCF Done:  E(RPBE1PBE) =  -2107.80040320     A.U. after   10 cycles
 SCF Done:  E(RPBE1PBE) =  -2107.80040575     A.U. after    9 cycles
 SCF Done:  E(RPBE1PBE) =  -2107.80040657     A.U. after    8 cycles
 SCF Done:  E(RPBE1PBE) =  -2107.80040675     A.U. after    7 cycles
 SCF Done:  E(RPBE1PBE) =  -2107.80040683     A.U. after    6 cycles
 SCF Done:  E(RPBE1PBE) =  -2107.80040685     A.U. after    6 cycles
 Optimization completed.
    -- Stationary point found.
 Normal termination of Gaussian 16 at Fri Jan 24 17:19:40 2025.

 ---------------------------------------------------------------------
 #P Geom=AllCheck Guess=TCheck SCRF=Check GenChk RPBE1PBE/def2SVP Freq
 ---------------------------------------------------------------------

 Structure from the checkpoint file:  "with_proton.chk"
 -----------
 with_proton
 -----------
 Charge =  1 Multiplicity = 1

 SCF Done:  E(RPBE1PBE) =  -2107.80040685     A.U. after    1 cycles

  Exact polarizability:     285.094      -3.375     241.766       8.191      -0.618     194.293
 Approx polarizability:     373.850     -20.561     352.167       9.987     -15.279     310.952

                      1                      2                      3
                      A                      A                      A
 Frequencies --     10.0715                13.4644                21.1757
 Red. masses --     17.4857                 4.8032                 7.4572
 Frc consts  --      0.0010                 0.0005                 0.0020
 IR Inten    --      0.0686                 0.2833                 0.2427

                      4                      5                      6
                      A                      A                      A
 Frequencies --     26.2920                35.5766                49.4652
 Red. masses --      7.0804                 6.2312                 4.6062
 Frc consts  --      0.0029                 0.0046                 0.0066
 IR Inten    --      0.9873                 1.6763                 0.3196

                      7                      8                      9
                      A                      A                      A
 Frequencies --     56.0614                58.9235                66.4742
 Red. masses --      4.5660                 3.0871                 6.3416
 Frc consts  --      0.0085                 0.0063                 0.0165
 IR Inten    --      0.5356                 0.2584                 0.1501

                     10                     11                     12
                      A                      A                      A
 Frequencies --     71.4356                79.3985                84.1593
 Red. masses --      5.6352                 3.1564                 6.3928
 Frc consts  --      0.0169                 0.0117                 0.0267
 IR Inten    --      0.6448                 2.5820                 2.1948

                     13                     14                     15
                      A                      A                      A
 Frequencies --    104.9238               110.5346               118.8834
 Red. masses --      5.4839                10.7152                 1.8883
 Frc consts  --      0.0356                 0.0771                 0.0157
 IR Inten    --      1.1362                 3.9877                 6.0347

                     16                     17                     18
                      A                      A                      A
 Frequencies --    124.7716               132.0635               143.4046
 Red. masses --      4.1798                 2.4226                 3.6800
 Frc consts  --      0.0383                 0.0249                 0.0446
 IR Inten    --      3.8159                 0.0810                 3.1205

                     19                     20                     21
                      A                      A                      A
 Frequencies --    150.4007               164.7753               178.6234
 Red. masses --      6.8484                 4.1316                 4.6816
 Frc consts  --      0.0913                 0.0661                 0.0880
 IR Inten    --      1.1116                 0.1725                 1.3713

                     22                     23                     24
                      A                      A                      A
 Frequencies --    193.6229               212.6844               246.1245
 Red. masses --      4.3474                 4.5271                 3.1469
 Frc consts  --      0.0960                 0.1207                 0.1123
 IR Inten    --      3.7432                 2.7078                 0.4933

                     25                     26                     27
                      A                      A                      A
 Frequencies --    251.9738               257.3057               265.5472
 Red. masses --      1.3561                 4.6342                16.4652
 Frc consts  --      0.0507                 0.1808                 0.6841
 IR Inten    --      0.0868                 0.0910                 0.2192

                     28                     29                     30
                      A                      A                      A
 Frequencies --    286.3585               303.8470               310.8771
 Red. masses --      3.6606                12.5035                 4.5632
 Frc consts  --      0.1769                 0.6801                 0.2598
 IR Inten    --      0.8836                 4.1460                 0.8677

                     31                     32                     33
                      A                      A                      A
 Frequencies --    316.5346               325.7020               346.0277
 Red. masses --      5.5693                 4.8491                 4.3305
 Frc consts  --      0.3288                 0.3031                 0.3055
 IR Inten    --      0.2920                 0.8086                 3.8169

                     34                     35                     36
                      A                      A                      A
 Frequencies --    371.4654               392.8225               415.3435
 Red. masses --      8.7299                 5.7195                 2.7927
 Frc consts  --      0.7097                 0.5200                 0.2838
 IR Inten    --      0.6813                 3.9995                 1.7412

                     37                     38                     39
                      A                      A                      A
 Frequencies --    431.2241               441.6836               471.1770
 Red. masses --      5.9813                 6.9811                 9.8416
 Frc consts  --      0.6553                 0.8024                 1.2873
 IR Inten    --      8.8316                 4.3425                 7.7776

                     40                     41                     42
                      A                      A                      A
 Frequencies --    480.0016               510.3163               511.8238
 Red. masses --      7.4414                 6.7736                 5.9001
 Frc consts  --      1.0102                 1.0393                 0.9107
 IR Inten    --     11.3758                 1.0318                 1.8420

                     43                     44                     45
                      A                      A                      A
 Frequencies --    522.0951               552.9981               574.5808
 Red. masses --      8.4786                 6.1121                 9.4892
 Frc consts  --      1.3617                 1.1013                 1.8458
 IR Inten    --      0.8648                 0.4834                 4.7618

                     46                     47                     48
                      A                      A                      A
 Frequencies --    584.1904               588.9871               594.4420
 Red. masses --     12.1733                10.1896                 9.6844
 Frc consts  --      2.4478                 2.0827                 2.0162
 IR Inten    --      1.6070                 2.0206                 3.6887

                     49                     50                     51
                      A                      A                      A
 Frequencies --    634.7633               663.4068               683.2332
 Red. masses --      5.1207                 5.9070                 8.6943
 Frc consts  --      1.2156                 1.5317                 2.3913
 IR Inten    --      3.9929                 0.9950                13.8853

                     52                     53                     54
                      A                      A                      A
 Frequencies --    686.4214               698.9565               701.0111
 Red. masses --      8.1606                 5.5248                 9.2428
 Frc consts  --      2.2655                 1.5903                 2.6761
 IR Inten    --      1.4668                11.9663                22.9113

                     55                     56                     57
                      A                      A                      A
 Frequencies --    714.0392               726.9175               744.5023
 Red. masses --      3.8128                 5.3775                 1.0842
 Frc consts  --      1.1454                 1.6742                 0.3541
 IR Inten    --     37.2374                 5.4556                 2.0589

                     58                     59                     60
                      A                      A                      A
 Frequencies --    747.6835               757.5462               788.9182
 Red. masses --      1.5184                16.6543                 2.7769
 Frc consts  --      0.5001                 5.6311                 1.0183
 IR Inten    --     74.3772                 8.2799                15.4129

                     61                     62                     63
                      A                      A                      A
 Frequencies --    801.8623               805.8179               848.5338
 Red. masses --      1.6060                 4.9771                 2.0151
 Frc consts  --      0.6084                 1.9042                 0.8548
 IR Inten    --      2.1905                 3.1214                 8.4392

                     64                     65                     66
                      A                      A                      A
 Frequencies --    869.6738               878.9144               882.3676
 Red. masses --      2.0949                 2.3387                 5.3675
 Frc consts  --      0.9335                 1.0644                 2.4622
 IR Inten    --      1.3766                 6.9953                 4.9427

                     67                     68                     69
                      A                      A                      A
 Frequencies --    915.0001               922.0130               934.9044
 Red. masses --      1.7475                 3.4569                 2.5571
 Frc consts  --      0.8620                 1.7315                 1.3168
 IR Inten    --     15.2227                59.7893                 8.6491

                     70                     71                     72
                      A                      A                      A
 Frequencies --    941.5192               950.6291               970.2214
 Red. masses --      1.5241                 1.6000                 1.3766
 Frc consts  --      0.7960                 0.8519                 0.7635
 IR Inten    --     16.3177                30.9898                 0.5932

                     73                     74                     75
                      A                      A                      A
 Frequencies --   1021.6530              1034.3625              1036.9954
 Red. masses --      1.4765                 1.7370                 1.6643
 Frc consts  --      0.9080                 1.0950                 1.0545
 IR Inten    --      7.4329                56.4087                 8.4965

                     76                     77                     78
                      A                      A                      A
 Frequencies --   1044.9252              1062.0445              1092.1931
 Red. masses --      1.6082                 1.8189                 2.1046
 Frc consts  --      1.0345                 1.2088                 1.4792
 IR Inten    --      6.9056                 1.6520                 3.6760

                     79                     80                     81
                      A                      A                      A
 Frequencies --   1108.0227              1121.9411              1125.4779
 Red. masses --      2.8420                 2.1647                 4.6708
 Frc consts  --      2.0557                 1.6054                 3.4859
 IR Inten    --     35.5179                25.7957                45.7649

                     82                     83                     84
                      A                      A                      A
 Frequencies --   1146.6386              1156.6763              1158.9307
 Red. masses --      1.8896                 2.2481                 4.6437
 Frc consts  --      1.4638                 1.7721                 3.6748
 IR Inten    --      7.5202                37.1962                57.0173

                     85                     86                     87
                      A                      A                      A
 Frequencies --   1174.4945              1185.6393              1208.3037
 Red. masses --      2.7399                 9.4753                 2.2339
 Frc consts  --      2.2268                 7.8478                 1.9216
 IR Inten    --     20.7344               152.4943               140.9352

                     88                     89                     90
                      A                      A                      A
 Frequencies --   1211.9288              1238.2954              1245.0352
 Red. masses --      1.9158                 2.0823                 1.8498
 Frc consts  --      1.6579                 1.8812                 1.6895
 IR Inten    --     51.1684                38.4494                 6.4077

                     91                     92                     93
                      A                      A                      A
 Frequencies --   1248.7323              1250.1128              1266.3106
 Red. masses --      1.4397                 8.7223                 4.7870
 Frc consts  --      1.3227                 8.0312                 4.5226
 IR Inten    --     22.4763               225.4335               233.5413

                     94                     95                     96
                      A                      A                      A
 Frequencies --   1272.8099              1282.8465              1288.4983
 Red. masses --      4.5325                 7.3580                 1.4916
 Frc consts  --      4.3263                 7.1345                 1.4590
 IR Inten    --     90.8913               407.2614               126.6582

                     97                     98                     99
                      A                      A                      A
 Frequencies --   1301.9610              1314.1507              1318.5218
 Red. masses --      1.9535                 1.2305                 4.2859
 Frc consts  --      1.9510                 1.2521                 4.3901
 IR Inten    --    117.4777                24.1705               423.6580

                    100                    101                    102
                      A                      A                      A
 Frequencies --   1323.9510              1324.0652              1328.7096
 Red. masses --      1.3559                 4.5750                 1.5148
 Frc consts  --      1.4003                 4.7256                 1.5757
 IR Inten    --     52.5194               677.6750                43.1863

                    103                    104                    105
                      A                      A                      A
 Frequencies --   1356.9852              1391.7333              1397.0689
 Red. masses --      1.7808                 1.4343                 2.1625
 Frc consts  --      1.9321                 1.6369                 2.4868
 IR Inten    --     67.3754                 1.7285                 4.0475

                    106                    107                    108
                      A                      A                      A
 Frequencies --   1397.5744              1407.7176              1440.9888
 Red. masses --      2.5397                 1.5044                 1.0750
 Frc consts  --      2.9227                 1.7565                 1.3151
 IR Inten    --     47.0615                 2.5316                15.7499

                    109                    110                    111
                      A                      A                      A
 Frequencies --   1447.1410              1450.0364              1453.7035
 Red. masses --      1.1378                 4.9559                 1.2011
 Frc consts  --      1.4039                 6.1394                 1.4954
 IR Inten    --      5.0858                23.6486                10.6445

                    112                    113                    114
                      A                      A                      A
 Frequencies --   1462.4248              1464.0918              1470.3633
 Red. masses --      1.0619                 2.3091                 1.0370
 Frc consts  --      1.3381                 2.9162                 1.3209
 IR Inten    --      4.0981                 5.1011                10.6145

                    115                    116                    117
                      A                      A                      A
 Frequencies --   1471.8048              1482.2756              1490.1458
 Red. masses --      1.0933                 1.0998                 5.8806
 Frc consts  --      1.3954                 1.4238                 7.6936
 IR Inten    --      1.5974                 7.3315                 6.4176

                    118                    119                    120
                      A                      A                      A
 Frequencies --   1526.4334              1536.5297              1621.6593
 Red. masses --      5.9830                 5.5395                 5.7193
 Frc consts  --      8.2134                 7.7055                 8.8615
 IR Inten    --     17.3140                29.9463                17.7702

                    121                    122                    123
                      A                      A                      A
 Frequencies --   1658.4824              1680.4909              1709.0291
 Red. masses --      9.4150                 6.1783                 7.2682
 Frc consts  --     15.2578                10.2800                12.5076
 IR Inten    --     24.1057               460.1227                 9.2923

                    124                    125                    126
                      A                      A                      A
 Frequencies --   3043.7560              3050.7752              3054.6892
 Red. masses --      1.0616                 1.0629                 1.0587
 Frc consts  --      5.7946                 5.8288                 5.8203
 IR Inten    --      1.7443                 0.4504                21.4914

                    127                    128                    129
                      A                      A                      A
 Frequencies --   3056.6761              3074.7474              3089.1313
 Red. masses --      1.0421                 1.0389                 1.1021
 Frc consts  --      5.7366                 5.7867                 6.1965
 IR Inten    --     37.5614                 0.1817                 0.5314

                    130                    131                    132
                      A                      A                      A
 Frequencies --   3107.9279              3125.0746              3142.6680
 Red. masses --      1.1051                 1.1009                 1.0932
 Frc consts  --      6.2892                 6.3347                 6.3616
 IR Inten    --     14.5569                 2.9186                16.9471

                    133                    134                    135
                      A                      A                      A
 Frequencies --   3146.8127              3160.8951              3163.3537
 Red. masses --      1.1040                 1.1033                 1.1037
 Frc consts  --      6.4412                 6.4950                 6.5070
 IR Inten    --     28.9107                12.7217                 0.7462

                    136                    137                    138
                      A                      A                      A
 Frequencies --   3179.1563              3208.9275              3240.6862
 Red. masses --      1.0896                 1.1032                 1.0940
 Frc consts  --      6.4887                 6.6933                 6.7693
 IR Inten    --      1.1296                 3.3454                 8.1614

                    139                    140                    141
                      A                      A                      A
 Frequencies --   3243.3623              3281.3550              3571.1392
 Red. masses --      1.0938                 1.0991                 1.0827
 Frc consts  --      6.7791                 6.9727                 8.1351
 IR Inten    --      8.9280                61.8958               205.2717

 - Thermochemistry -
 -------------------
 Temperature   298.150 Kelvin.  Pressure   1.00000 Atm.
 Atom     1 has atomic number  6 and mass  12.00000

 Molecular mass:   474.11093 amu.
 Principal axes and moments of inertia in atomic units:
                           1         2         3
     Eigenvalues --  ******************************
           X            0.99840   0.05449   0.01506
           Y           -0.05479   0.99830   0.02008
           Z           -0.01394  -0.02087   0.99968
 This molecule is an asymmetric top.
 Rotational symmetry number  1.
 Warning -- assumption of classical behavior for rotation
           may cause significant error
 Rotational temperatures (Kelvin)      0.00745     0.00451     0.00347
 Rotational constants (GHZ):           0.15531     0.09392     0.07225
 Zero-point vibrational energy     932976.8 (Joules/Mol)
                                  222.98680 (Kcal/Mol)
 Warning -- explicit consideration of  48 degrees of freedom as
           vibrations may cause significant error
 Vibrational temperatures:     14.49    19.37    30.47    37.83    51.19
          (Kelvin)             71.17    80.66    84.78    95.64   102.78
                              114.24   121.09   150.96   159.03   171.05
                              179.52   190.01   206.33   216.39   237.07
                              257.00   278.58   306.01   354.12   362.53
                              370.21   382.06   412.01   437.17   447.28
                              455.42   468.61   497.86   534.46   565.18
                              597.59   620.44   635.48   677.92   690.62
                              734.23   736.40   751.18   795.64   826.69
                              840.52   847.42   855.27   913.28   954.49
                              983.02   987.61  1005.64  1008.60  1027.34
                             1045.87  1071.17  1075.75  1089.94  1135.08
                             1153.70  1159.39  1220.85  1251.27  1264.56
                             1269.53  1316.48  1326.57  1345.12  1354.64
                             1367.74  1395.93  1469.93  1488.22  1492.01
                             1503.41  1528.05  1571.42  1594.20  1614.22
                             1619.31  1649.76  1664.20  1667.44  1689.84
                             1705.87  1738.48  1743.70  1781.63  1791.33
                             1796.65  1798.63  1821.94  1831.29  1845.73
                             1853.86  1873.23  1890.77  1897.06  1904.87
                             1905.03  1911.72  1952.40  2002.39  2010.07
                             2010.80  2025.39  2073.26  2082.11  2086.28
                             2091.56  2104.10  2106.50  2115.52  2117.60
                             2132.66  2143.99  2196.20  2210.72  2333.21
                             2386.19  2417.85  2458.91  4379.29  4389.39
                             4395.02  4397.88  4423.88  4444.57  4471.62
                             4496.29  4521.60  4527.56  4547.82  4551.36
                             4574.10  4616.93  4662.62  4666.47  4721.14
                             5138.07

 Zero-point correction=                           0.355352 (Hartree/Particle)
 Thermal correction to Energy=                    0.385864
 Thermal correction to Enthalpy=                  0.386808
 Thermal correction to Gibbs Free Energy=         0.288385
 Sum of electronic and zero-point Energies=          -2107.445055
 Sum of electronic and thermal Energies=             -2107.414543
 Sum of electronic and thermal Enthalpies=           -2107.413598
 Sum of electronic and thermal Free Energies=        -2107.512022

                     E (Thermal)             CV                S
                      KCal/Mol        Cal/Mol-Kelvin    Cal/Mol-Kelvin
 Total                  242.133            110.381            207.149
 Electronic               0.000              0.000              0.000
 Translational            0.889              2.981             44.357
 Rotational               0.889              2.981             36.965
 Vibrational            240.356            104.420            125.827
 Vibration     1          0.593              1.987              7.997
 Vibration     2          0.593              1.987              7.420
 Vibration     3          0.593              1.985              6.521
 Vibration     4          0.593              1.985              6.091
 Vibration     5          0.594              1.982              5.491
 Vibration     6          0.595              1.978              4.839
 Vibration     7          0.596              1.975              4.591
 Vibration     8          0.596              1.974              4.493
 Vibration     9          0.598              1.970              4.255
 Vibration    10          0.598              1.968              4.113
 Vibration    11          0.600              1.963              3.906
 Vibration    12          0.601              1.960              3.791
 Vibration    13          0.605              1.945              3.361
 Vibration    14          0.606              1.941              3.260
 Vibration    15          0.609              1.934              3.118
 Vibration    16          0.610              1.928              3.025
 Vibration    17          0.612              1.921              2.916
 Vibration    18          0.616              1.910              2.758
 Vibration    19          0.618              1.902              2.667
 Vibration    20          0.623              1.886              2.494
 Vibration    21          0.629              1.869              2.343
 Vibration    22          0.635              1.849              2.193
 Vibration    23          0.644              1.822              2.021
 Vibration    24          0.661              1.769              1.758
 Vibration    25          0.664              1.759              1.717
 Vibration    26          0.667              1.750              1.680
 Vibration    27          0.671              1.736              1.625
 Vibration    28          0.684              1.699              1.495
 Vibration    29          0.695              1.666              1.396
 Vibration    30          0.700              1.653              1.358
 Vibration    31          0.703              1.642              1.328
 Vibration    32          0.710              1.624              1.281
 Vibration    33          0.724              1.583              1.184
 Vibration    34          0.743              1.531              1.074
 Vibration    35          0.760              1.486              0.989
 Vibration    36          0.779              1.437              0.908
 Vibration    37          0.792              1.402              0.855
 Vibration    38          0.801              1.379              0.821
 Vibration    39          0.828              1.314              0.734
 Vibration    40          0.836              1.294              0.710
 Vibration    41          0.865              1.227              0.633
 Vibration    42          0.867              1.224              0.629
 Vibration    43          0.877              1.201              0.605
 Vibration    44          0.908              1.133              0.538
 Vibration    45          0.931              1.086              0.496
 Vibration    46          0.941              1.066              0.478
 Vibration    47          0.946              1.055              0.469
 Vibration    48          0.952              1.044              0.459

                           ! Non-Optimized Parameters !
 Normal termination of Gaussian 16 at Fri Jan 24 17:32:40 2025.
 Gaussian 16:  ES64L-G16RevC.01  3-Jul-2019

 ----------------------------------------------------------------------
 #p def2tzvp pbe1pbe integral=ultrafinegrid geom=allcheck guess=read em
 =gd3bj
 ----------------------------------------------------------------------

 Structure from the checkpoint file:  "with_proton.chk"
 -----------
 with_proton
 -----------
 Charge =  1 Multiplicity = 1

                         Standard orientation:
 ---------------------------------------------------------------------
 Center     Atomic      Atomic             Coordinates (Angstroms)
 Number     Number       Type             X           Y           Z
 ---------------------------------------------------------------------
      1          6           0       -0.870618    2.818464    2.655106
      2          7           0       -0.641792    1.721927    1.960045
      3          6           0       -1.069792    1.718837    0.646281
      4          5           0       -0.734490    0.485949   -0.290825
      5          6           0       -1.785001   -0.181014   -1.162920
      6          6           0       -3.111665   -0.060899   -0.913818
      7          6           0       -4.187836   -0.862971   -1.543039
      8          6           0       -4.777874   -1.874837   -0.549681
      9          6           0       -5.895936   -2.713871   -1.153408
     10          6           0       -6.469791   -3.725543   -0.175456
     11          6           0        0.750406   -0.074287   -0.197237
     12          6           0        1.056117   -1.275875    0.465878
     13          6           0       -0.037898   -2.030909    1.177605
     14          9           0       -0.845918   -2.677794    0.347653
     15          9           0       -0.819775   -1.149065    1.868988
     16          9           0        0.434687   -2.897162    2.057028
     17          6           0        2.352154   -1.785777    0.499583
     18          6           0        3.381731   -1.101390   -0.137967
     19          6           0        4.795728   -1.630093   -0.069836
     20          9           0        4.806252   -2.957453    0.012555
     21          9           0        5.420484   -1.149647    1.005633
     22          9           0        5.493393   -1.267661   -1.142240
     23          6           0        3.116811    0.097017   -0.792413
     24          6           0        1.820342    0.604282   -0.803647
     25          6           0        1.567962    1.939701   -1.452552
     26          9           0        2.476804    2.254224   -2.356211
     27          9           0        0.359742    1.955169   -2.051868
     28          9           0        1.540636    2.921435   -0.537093
     29          6           0       -1.655992    2.923901    0.332781
     30          6           0       -2.194369    3.405760   -0.966228
     31         16           0       -1.631306    3.984134    1.711202
     32          1           0       -0.608160    2.935423    3.707336
     33          1           0       -1.476724   -0.908873   -1.922122
     34          1           0       -3.436666    0.628400   -0.120414
     35          1           0       -4.994956   -0.188360   -1.880740
     36          1           0       -3.802625   -1.389311   -2.430451
     37          1           0       -5.155677   -1.340674    0.340463
     38          1           0       -3.967455   -2.532154   -0.189554
     39          1           0       -6.696323   -2.044487   -1.514020
     40          1           0       -5.513297   -3.234572   -2.048244
     41          1           0       -7.271566   -4.318702   -0.638724
     42          1           0       -5.696846   -4.428250    0.173922
     43          1           0       -6.894293   -3.230491    0.712369
     44          1           0        2.559027   -2.721759    1.021089
     45          1           0        3.920298    0.634314   -1.299486
     46          1           0       -1.539452    4.181635   -1.391920
     47          1           0       -2.244754    2.574213   -1.678445
     48          1           0       -3.200610    3.834413   -0.851113
     49          1           0       -0.217661    0.888466    2.370412
 ---------------------------------------------------------------------

 SCF Done:  E(RPBE1PBE) =  -2109.87476964     A.U. after   11 cycles

 The electronic state is 1-A.
 Alpha  occ. eigenvalues --  -89.24565 -24.93400 -24.92991 -24.92594 -24.92416
 Alpha  occ. eigenvalues --  -24.92307 -24.92244 -24.89819 -24.89814 -24.89532
 Alpha  occ. eigenvalues --  -14.64442 -10.59722 -10.59485 -10.57160 -10.48829
 Alpha  occ. eigenvalues --  -10.44412 -10.42716 -10.39229 -10.39093 -10.38223
 Alpha  occ. eigenvalues --  -10.38084 -10.37981 -10.37948 -10.37513 -10.37102
 Alpha  occ. eigenvalues --  -10.33259 -10.33162 -10.31921 -10.30228 -10.28481
 Alpha  occ. eigenvalues --   -8.22346  -6.93226  -6.15912  -6.15519  -6.15434
 Alpha  occ. eigenvalues --   -1.47806  -1.47688  -1.45069  -1.38820  -1.38754
 Alpha  occ. eigenvalues --   -1.38466  -1.38192  -1.35979  -1.35623  -1.21849
 Alpha  occ. eigenvalues --   -1.04563  -1.03238  -0.97503  -0.95848  -0.95365
 Alpha  occ. eigenvalues --   -0.95155  -0.89901  -0.89139  -0.86364  -0.85439
 Alpha  occ. eigenvalues --   -0.84551  -0.83539  -0.82071  -0.78892  -0.78430
 Alpha  occ. eigenvalues --   -0.76979  -0.75511  -0.75132  -0.74933  -0.74172
 Alpha  occ. eigenvalues --   -0.73982  -0.73880  -0.73303  -0.71325  -0.71222
 Alpha  occ. eigenvalues --   -0.69680  -0.68558  -0.67350  -0.66977  -0.66114
 Alpha  occ. eigenvalues --   -0.64267  -0.64027  -0.63261  -0.61877  -0.61645
 Alpha  occ. eigenvalues --   -0.61412  -0.61113  -0.60853  -0.59505  -0.58561
 Alpha  occ. eigenvalues --   -0.58394  -0.58201  -0.57998  -0.57741  -0.57592
 Alpha  occ. eigenvalues --   -0.57317  -0.57194  -0.56840  -0.56153  -0.55748
 Alpha  occ. eigenvalues --   -0.55426  -0.55305  -0.55246  -0.55069  -0.54792
 Alpha  occ. eigenvalues --   -0.53833  -0.53495  -0.53191  -0.52470  -0.52376
 Alpha  occ. eigenvalues --   -0.50858  -0.50368  -0.50109  -0.49130  -0.48496
 Alpha  occ. eigenvalues --   -0.47919  -0.47252  -0.45439  -0.44267  -0.43282
 Alpha  occ. eigenvalues --   -0.42872  -0.41934  -0.41898  -0.41103  -0.40055
 Alpha virt. eigenvalues --   -0.21757  -0.20374  -0.17074  -0.16593  -0.14608
 Alpha virt. eigenvalues --   -0.13571  -0.10072  -0.07608  -0.07291  -0.06174
 Alpha virt. eigenvalues --   -0.04822  -0.04351  -0.04052  -0.02922  -0.02296

 Mulliken charges:
               1
     1  C   -0.044983
     2  N   -0.041548
     3  C   -0.035205
     4  B    0.043665
     5  C   -0.275018
     6  C    0.069106
     7  C   -0.189661
     8  C   -0.269629
     9  C   -0.173729
    10  C   -0.363683
    11  C   -0.142714
    12  C    0.086927
    13  C    0.502796
    14  F   -0.134168
    15  F   -0.200473
    16  F   -0.130348
    17  C   -0.332493
    18  C    0.186148
    19  C    0.447349
    20  F   -0.145667
    21  F   -0.143211
    22  F   -0.145249
    23  C   -0.347744
    24  C    0.096780
    25  C    0.483430
    26  F   -0.127253
    27  F   -0.156436
    28  F   -0.160856
    29  C    0.015040
    30  C   -0.358879
    31  S    0.212581
    32  H    0.226509
    33  H    0.136451
    34  H    0.136253
    35  H    0.128164
    36  H    0.132350
    37  H    0.106581
    38  H    0.120765
    39  H    0.107181
    40  H    0.109908
    41  H    0.145161
    42  H    0.121956
    43  H    0.119640
    44  H    0.183963
    45  H    0.183692
    46  H    0.177528
    47  H    0.184417
    48  H    0.172378
    49  H    0.282227
 Sum of Mulliken charges =   1.00000

 Dipole moment (field-independent basis, Debye):
    X=             -6.5793    Y=              7.5544    Z=              4.3414  Tot=             10.9180
 Quadrupole moment (field-independent basis, Debye-Ang):
   XX=           -148.6356   YY=           -142.1785   ZZ=           -156.1354
   XY=             -9.1948   XZ=              1.6215   YZ=             16.6100

 Normal termination of Gaussian 16 at Fri Jan 24 17:43:08 2025.
