 Gaussian 16, Revision C.01,

 -------------------------------------------------------------------
 #p opt freq=noraman def2svp pbe1pbe em=gd3bj integral=ultrafinegrid
 -------------------------------------------------------------------

 ------------
 with_hydride
 ------------
 Symbolic Z-matrix:
 Charge = -1 Multiplicity = 1

 SCF Done:  E(RPBE1PBE) =  -2107.89091188     A.U. after   19 cycles
 SCF Done:  E(RPBE1PBE) =  -2107.94334355     A.U. after   15 cycles
 SCF Done:  E(RPBE1PBE) =  -2108.00628385     A.U. after   15 cycles
 SCF Done:  E(RPBE1PBE) =  -2108.03308266     A.U. after   13 cycles
 SCF Done:  E(RPBE1PBE) =  -2108.04737216     A.U. after   13 cycles
 SCF Done:  E(RPBE1PBE) =  -2108.05631676     A.U. after   13 cycles
 SCF Done:  E(RPBE1PBE) =  -2108.05968074     A.U. after   13 cycles
 SCF Done:  E(RPBE1PBE) =  -2108.06101524     A.U. after   13 cycles
 SCF Done:  E(RPBE1PBE) =  -2108.06277192     A.U. after   12 cycles
 SCF Done:  E(RPBE1PBE) =  -2108.06396990     A.U. after   12 cycles
 SCF Done:  E(RPBE1PBE) =  -2108.07150211     A.U. after    8 cycles
 SCF Done:  E(RPBE1PBE) =  -2108.07150285     A.U. after    8 cycles
 SCF Done:  E(RPBE1PBE) =  -2108.07150311     A.U. after    7 cycles
 SCF Done:  E(RPBE1PBE) =  -2108.07150302     A.U. after    7 cycles
 SCF Done:  E(RPBE1PBE) =  -2108.07150283     A.U. after    7 cycles
 SCF Done:  E(RPBE1PBE) =  -2108.07150259     A.U. after    7 cycles
 SCF Done:  E(RPBE1PBE) =  -2108.07150307     A.U. after    9 cycles
 SCF Done:  E(RPBE1PBE) =  -2108.07150256     A.U. after    9 cycles
 Optimization completed.
    -- Stationary point found.
 Normal termination of Gaussian 16 at Fri Jan 24 17:27:03 2025.

 ---------------------------------------------------------------------
 #P Geom=AllCheck Guess=TCheck SCRF=Check GenChk RPBE1PBE/def2SVP Freq
 ---------------------------------------------------------------------

 Structure from the checkpoint file:  "with_hydride.chk"
 ------------
 with_hydride
 ------------
 Charge = -1 Multiplicity = 1

 SCF Done:  E(RPBE1PBE) =  -2108.07150256     A.U. after    1 cycles

  Exact polarizability:     273.738      -4.073     269.996       4.496      -7.857     196.134
 Approx polarizability:     377.156     -20.611     374.947       1.642     -35.267     318.182

                      1                      2                      3
                      A                      A                      A
 Frequencies --     10.8708                11.3886                21.5029
 Red. masses --      6.2630                16.3684                 5.5524
 Frc consts  --      0.0004                 0.0013                 0.0015
 IR Inten    --      0.1166                 0.0079                 0.0492

                      4                      5                      6
                      A                      A                      A
 Frequencies --     24.0652                42.0050                52.2290
 Red. masses --      6.2065                 4.7316                 5.9070
 Frc consts  --      0.0021                 0.0049                 0.0095
 IR Inten    --      0.1378                 0.3217                 0.9115

                      7                      8                      9
                      A                      A                      A
 Frequencies --     54.7162                62.8967                74.5037
 Red. masses --      3.4950                 2.4764                10.1795
 Frc consts  --      0.0062                 0.0058                 0.0333
 IR Inten    --      0.1498                 0.1512                 0.2978

                     10                     11                     12
                      A                      A                      A
 Frequencies --     77.0224                85.6806                95.2487
 Red. masses --     10.8123                 6.1242                 4.6784
 Frc consts  --      0.0378                 0.0265                 0.0250
 IR Inten    --      0.0611                 0.0177                 0.2697

                     13                     14                     15
                      A                      A                      A
 Frequencies --    102.2442               115.6189               120.3802
 Red. masses --      4.9713                13.4952                 1.1846
 Frc consts  --      0.0306                 0.1063                 0.0101
 IR Inten    --      0.6657                 0.7581                 0.1868

                     16                     17                     18
                      A                      A                      A
 Frequencies --    133.5099               146.8223               150.1560
 Red. masses --      1.9937                 8.8944                 7.0992
 Frc consts  --      0.0209                 0.1130                 0.0943
 IR Inten    --      0.1701                 0.2431                 0.0423

                     19                     20                     21
                      A                      A                      A
 Frequencies --    162.6193               170.2956               202.6821
 Red. masses --      8.2522                 6.9220                 6.2580
 Frc consts  --      0.1286                 0.1183                 0.1515
 IR Inten    --      0.3132                 0.4100                 0.1351

                     22                     23                     24
                      A                      A                      A
 Frequencies --    204.2123               216.4992               245.9287
 Red. masses --      4.1169                 2.6129                 2.2442
 Frc consts  --      0.1012                 0.0722                 0.0800
 IR Inten    --      0.6822                 0.9872                 1.4950

                     25                     26                     27
                      A                      A                      A
 Frequencies --    258.1912               264.5739               271.3177
 Red. masses --      1.5569                11.0375                 3.8792
 Frc consts  --      0.0612                 0.4552                 0.1682
 IR Inten    --      0.4420                 0.8196                 0.9687

                     28                     29                     30
                      A                      A                      A
 Frequencies --    277.4499               291.1293               302.2347
 Red. masses --      6.7557                 3.6529                10.1704
 Frc consts  --      0.3064                 0.1824                 0.5474
 IR Inten    --      0.7829                 0.7655                 0.7293

                     31                     32                     33
                      A                      A                      A
 Frequencies --    316.4960               322.6851               346.8535
 Red. masses --      7.3148                 7.3189                 4.5323
 Frc consts  --      0.4317                 0.4490                 0.3213
 IR Inten    --      0.3309                 1.1398                 2.8469

                     34                     35                     36
                      A                      A                      A
 Frequencies --    377.6470               392.8361               424.1866
 Red. masses --      8.5364                 4.1374                 5.8009
 Frc consts  --      0.7173                 0.3762                 0.6150
 IR Inten    --      1.5398                 0.4357                 8.0277

                     37                     38                     39
                      A                      A                      A
 Frequencies --    433.6991               455.5441               461.2634
 Red. masses --      3.9221                 7.3023                 7.8199
 Frc consts  --      0.4347                 0.8928                 0.9803
 IR Inten    --      2.8118                 3.1718                14.4335

                     40                     41                     42
                      A                      A                      A
 Frequencies --    484.2524               509.0230               519.2055
 Red. masses --      8.9405                 4.7698                 4.6276
 Frc consts  --      1.2353                 0.7282                 0.7350
 IR Inten    --      6.5446                 0.9169                 0.2872

                     43                     44                     45
                      A                      A                      A
 Frequencies --    527.8694               541.0677               569.1528
 Red. masses --     12.2457                 5.5134                11.6517
 Frc consts  --      2.0104                 0.9510                 2.2238
 IR Inten    --      0.2387                 0.4420                 1.4024

                     46                     47                     48
                      A                      A                      A
 Frequencies --    578.3759               583.9049               588.2300
 Red. masses --      9.2222                13.3349                 9.7567
 Frc consts  --      1.8176                 2.6787                 1.9891
 IR Inten    --      1.9686                 4.7810                 1.2084

                     49                     50                     51
                      A                      A                      A
 Frequencies --    628.8239               661.2387               663.1089
 Red. masses --      5.4038                 7.9829                 6.0938
 Frc consts  --      1.2589                 2.0565                 1.5787
 IR Inten    --      0.7154                 2.2284                 9.3431

                     52                     53                     54
                      A                      A                      A
 Frequencies --    684.3536               691.5518               703.6422
 Red. masses --      5.6990                 7.6888                11.5491
 Frc consts  --      1.5726                 2.1665                 3.3690
 IR Inten    --      5.9049                 0.3944                47.5109

                     55                     56                     57
                      A                      A                      A
 Frequencies --    708.2917               738.2092               738.8501
 Red. masses --      7.3464                 1.1566                 4.3130
 Frc consts  --      2.1715                 0.3713                 1.3872
 IR Inten    --     13.7245                 5.3263                 7.1706

                     58                     59                     60
                      A                      A                      A
 Frequencies --    756.7627               758.2987               779.2184
 Red. masses --      2.9573                13.3403                 1.6443
 Frc consts  --      0.9979                 4.5196                 0.5882
 IR Inten    --      9.2469                 2.0225                 8.6339

                     61                     62                     63
                      A                      A                      A
 Frequencies --    790.2453               803.0195               820.6045
 Red. masses --      1.6140                 2.5256                 2.5990
 Frc consts  --      0.5939                 0.9596                 1.0312
 IR Inten    --      8.5284                 0.5931                 5.6287

                     64                     65                     66
                      A                      A                      A
 Frequencies --    862.6768               865.3696               888.5000
 Red. masses --      2.9283                11.7092                 4.0453
 Frc consts  --      1.2840                 5.1663                 1.8815
 IR Inten    --     12.4184                16.2860                47.4459

                     67                     68                     69
                      A                      A                      A
 Frequencies --    899.9913               907.2044               926.4287
 Red. masses --      4.7081                 1.6377                 1.4814
 Frc consts  --      2.2469                 0.7942                 0.7491
 IR Inten    --     11.9337                 0.4120                 6.0710

                     70                     71                     72
                      A                      A                      A
 Frequencies --    943.6733               955.8603               975.1731
 Red. masses --      1.5722                 1.3958                 2.0531
 Frc consts  --      0.8249                 0.7514                 1.1504
 IR Inten    --     27.3750                 0.4586                 3.5674

                     73                     74                     75
                      A                      A                      A
 Frequencies --   1016.8768              1030.8237              1040.3371
 Red. masses --      1.8314                 1.1666                 1.4551
 Frc consts  --      1.1157                 0.7304                 0.9279
 IR Inten    --     20.5061                44.3252                14.2553

                     76                     77                     78
                      A                      A                      A
 Frequencies --   1047.1267              1060.7244              1064.0940
 Red. masses --      1.7898                 1.9445                 1.7084
 Frc consts  --      1.1562                 1.2891                 1.1397
 IR Inten    --     22.4403                 2.2202                19.8298

                     79                     80                     81
                      A                      A                      A
 Frequencies --   1072.6573              1093.3893              1107.4137
 Red. masses --      2.9930                 1.9249                 1.8896
 Frc consts  --      2.0290                 1.3558                 1.3653
 IR Inten    --     50.2403                 1.0696                 4.2255

                     82                     83                     84
                      A                      A                      A
 Frequencies --   1126.8719              1136.2693              1140.9221
 Red. masses --      2.1198                 3.2360                 3.0343
 Frc consts  --      1.5860                 2.4616                 2.3272
 IR Inten    --      3.6945                31.6471                30.2752

                     85                     86                     87
                      A                      A                      A
 Frequencies --   1160.3724              1169.2287              1181.7574
 Red. masses --      3.2748                 3.2561                 9.8331
 Frc consts  --      2.5980                 2.6227                 8.0909
 IR Inten    --     31.7709                 7.9683               145.2016

                     88                     89                     90
                      A                      A                      A
 Frequencies --   1199.6191              1206.0800              1212.9696
 Red. masses --      3.0615                12.1057                 2.9973
 Frc consts  --      2.5958                10.3751                 2.5982
 IR Inten    --      1.8366               234.7495               240.6740

                     91                     92                     93
                      A                      A                      A
 Frequencies --   1215.3931              1236.5648              1240.3370
 Red. masses --      1.5508                 4.6819                 3.1006
 Frc consts  --      1.3497                 4.2180                 2.8104
 IR Inten    --     10.9885               107.8998               124.0458

                     94                     95                     96
                      A                      A                      A
 Frequencies --   1242.4542              1243.9335              1246.8473
 Red. masses --      2.6068                 2.5001                 2.3078
 Frc consts  --      2.3710                 2.2793                 2.1139
 IR Inten    --    136.0937               169.9124               178.0222

                     97                     98                     99
                      A                      A                      A
 Frequencies --   1275.8154              1295.8405              1299.5869
 Red. masses --      1.4023                 1.6349                 1.4396
 Frc consts  --      1.3448                 1.6175                 1.4326
 IR Inten    --      4.8486               197.3541               120.6652

                    100                    101                    102
                      A                      A                      A
 Frequencies --   1306.9528              1314.9503              1319.4701
 Red. masses --      1.3482                 1.1861                 3.0501
 Frc consts  --      1.3568                 1.2084                 3.1287
 IR Inten    --     63.9196                51.2657               339.6945

                    103                    104                    105
                      A                      A                      A
 Frequencies --   1320.2719              1344.6110              1384.0283
 Red. masses --      3.7107                 1.5178                 1.3739
 Frc consts  --      3.8109                 1.6168                 1.5505
 IR Inten    --    445.0987                 1.3601                 3.3941

                    106                    107                    108
                      A                      A                      A
 Frequencies --   1387.3120              1390.2146              1404.5818
 Red. masses --      9.9787                 1.3787                 1.7879
 Frc consts  --     11.3155                 1.5699                 2.0782
 IR Inten    --     41.3136                 1.1630                 3.8771

                    109                    110                    111
                      A                      A                      A
 Frequencies --   1418.4149              1446.5546              1447.7000
 Red. masses --      8.5957                 1.0905                 1.0822
 Frc consts  --     10.1891                 1.3445                 1.3364
 IR Inten    --     68.8113                 0.6451                 1.2383

                    112                    113                    114
                      A                      A                      A
 Frequencies --   1459.0222              1461.0895              1466.5847
 Red. masses --      1.0704                 1.0496                 1.0374
 Frc consts  --      1.3425                 1.3201                 1.3147
 IR Inten    --      0.3966                 5.2948                 6.0983

                    115                    116                    117
                      A                      A                      A
 Frequencies --   1469.9523              1477.2994              1480.7891
 Red. masses --      1.0899                 4.5690                 1.0892
 Frc consts  --      1.3876                 5.8751                 1.4072
 IR Inten    --      0.6299                 4.7046                 4.7197

                    118                    119                    120
                      A                      A                      A
 Frequencies --   1498.9981              1530.7419              1584.2919
 Red. masses --      6.9031                 8.1871                 9.5123
 Frc consts  --      9.1389                11.3028                14.0672
 IR Inten    --      4.6072                52.4210                26.2443

                    121                    122                    123
                      A                      A                      A
 Frequencies --   1651.3943              1696.3171              1721.2333
 Red. masses --      9.3359                 6.4559                 7.4734
 Frc consts  --     15.0006                10.9452                13.0452
 IR Inten    --     28.1860                97.0963                 3.8876

                    124                    125                    126
                      A                      A                      A
 Frequencies --   2478.2797              3000.2610              3033.2805
 Red. masses --      1.0852                 1.0657                 1.0604
 Frc consts  --      3.9270                 5.6522                 5.7485
 IR Inten    --     99.3541                57.7637                 8.7666

                    127                    128                    129
                      A                      A                      A
 Frequencies --   3035.6283              3040.1324              3042.8284
 Red. masses --      1.0394                 1.0625                 1.0394
 Frc consts  --      5.6434                 5.7858                 5.6703
 IR Inten    --     64.3861                48.4617                44.3367

                    130                    131                    132
                      A                      A                      A
 Frequencies --   3065.9959              3074.1973              3095.8598
 Red. masses --      1.0956                 1.1023                 1.0877
 Frc consts  --      6.0682                 6.1378                 6.1421
 IR Inten    --     11.5637                 0.3834                21.6836

                    133                    134                    135
                      A                      A                      A
 Frequencies --   3098.3132              3110.2130              3131.8136
 Red. masses --      1.1034                 1.1024                 1.0886
 Frc consts  --      6.2408                 6.2832                 6.2909
 IR Inten    --     52.7085                23.4281                22.8439

                    136                    137                    138
                      A                      A                      A
 Frequencies --   3133.2498              3135.0426              3170.8339
 Red. masses --      1.1032                 1.1034                 1.1007
 Frc consts  --      6.3811                 6.3894                 6.5201
 IR Inten    --     46.1575                42.5702                 1.7824

                    139                    140                    141
                      A                      A                      A
 Frequencies --   3210.7124              3250.3765              3254.4403
 Red. masses --      1.0939                 1.0918                 1.0917
 Frc consts  --      6.6439                 6.7962                 6.8124
 IR Inten    --     12.4897                 0.6983                 0.6685

 - Thermochemistry -
 -------------------
 Temperature   298.150 Kelvin.  Pressure   1.00000 Atm.
 Atom     1 has atomic number  6 and mass  12.00000

 Molecular mass:   474.11093 amu.
 Principal axes and moments of inertia in atomic units:
                           1         2         3
     Eigenvalues --  ******************************
           X            0.97002   0.24133   0.02865
           Y           -0.24202   0.96997   0.02400
           Z           -0.02200  -0.03021   0.99930
 This molecule is an asymmetric top.
 Rotational symmetry number  1.
 Warning -- assumption of classical behavior for rotation
           may cause significant error
 Rotational temperatures (Kelvin)      0.00583     0.00510     0.00360
 Rotational constants (GHZ):           0.12151     0.10630     0.07500
 Zero-point vibrational energy     918372.7 (Joules/Mol)
                                  219.49634 (Kcal/Mol)
 Warning -- explicit consideration of  48 degrees of freedom as
           vibrations may cause significant error
 Vibrational temperatures:     15.64    16.39    30.94    34.62    60.44
          (Kelvin)             75.15    78.72    90.49   107.19   110.82
                              123.28   137.04   147.11   166.35   173.20
                              192.09   211.24   216.04   233.97   245.02
                              291.61   293.82   311.49   353.84   371.48
                              380.66   390.37   399.19   418.87   434.85
                              455.37   464.27   499.04   543.35   565.20
                              610.31   624.00   655.43   663.66   696.73
                              732.37   747.02   759.49   778.48   818.88
                              832.15   840.11   846.33   904.74   951.38
                              954.07   984.63   994.99  1012.38  1019.07
                             1062.12  1063.04  1088.81  1091.02  1121.12
                             1136.99  1155.37  1180.67  1241.20  1245.07
                             1278.35  1294.89  1305.26  1332.92  1357.74
                             1375.27  1403.06  1463.06  1483.13  1496.81
                             1506.58  1526.15  1530.99  1543.31  1573.14
                             1593.32  1621.32  1634.84  1641.53  1669.52
                             1682.26  1700.29  1725.98  1735.28  1745.19
                             1748.68  1779.14  1784.57  1787.61  1789.74
                             1793.94  1835.61  1864.43  1869.82  1880.41
                             1891.92  1898.42  1899.58  1934.60  1991.31
                             1996.03  2000.21  2020.88  2040.78  2081.27
                             2082.92  2099.21  2102.18  2110.09  2114.93
                             2125.50  2130.53  2156.72  2202.40  2279.44
                             2375.99  2440.62  2476.47  3565.69  4316.71
                             4364.21  4367.59  4374.07  4377.95  4411.28
                             4423.08  4454.25  4457.78  4474.90  4505.98
                             4508.05  4510.63  4562.12  4619.50  4676.57
                             4682.41

 Zero-point correction=                           0.349790 (Hartree/Particle)
 Thermal correction to Energy=                    0.380157
 Thermal correction to Enthalpy=                  0.381101
 Thermal correction to Gibbs Free Energy=         0.283485
 Sum of electronic and zero-point Energies=          -2107.721713
 Sum of electronic and thermal Energies=             -2107.691346
 Sum of electronic and thermal Enthalpies=           -2107.690402
 Sum of electronic and thermal Free Energies=        -2107.788018

                     E (Thermal)             CV                S
                      KCal/Mol        Cal/Mol-Kelvin    Cal/Mol-Kelvin
 Total                  238.552            110.941            205.451
 Electronic               0.000              0.000              0.000
 Translational            0.889              2.981             44.357
 Rotational               0.889              2.981             37.049
 Vibrational            236.775            104.979            124.045
 Vibration     1          0.593              1.987              7.845
 Vibration     2          0.593              1.987              7.753
 Vibration     3          0.593              1.985              6.490
 Vibration     4          0.593              1.985              6.267
 Vibration     5          0.595              1.980              5.162
 Vibration     6          0.596              1.977              4.731
 Vibration     7          0.596              1.976              4.639
 Vibration     8          0.597              1.972              4.364
 Vibration     9          0.599              1.966              4.031
 Vibration    10          0.599              1.964              3.965
 Vibration    11          0.601              1.959              3.756
 Vibration    12          0.603              1.953              3.549
 Vibration    13          0.604              1.947              3.411
 Vibration    14          0.608              1.936              3.172
 Vibration    15          0.609              1.932              3.094
 Vibration    16          0.613              1.920              2.895
 Vibration    17          0.617              1.906              2.713
 Vibration    18          0.618              1.902              2.670
 Vibration    19          0.623              1.888              2.519
 Vibration    20          0.625              1.879              2.432
 Vibration    21          0.639              1.836              2.109
 Vibration    22          0.640              1.834              2.095
 Vibration    23          0.645              1.816              1.988
 Vibration    24          0.660              1.770              1.760
 Vibration    25          0.667              1.749              1.674
 Vibration    26          0.671              1.738              1.631
 Vibration    27          0.675              1.726              1.588
 Vibration    28          0.678              1.715              1.549
 Vibration    29          0.687              1.690              1.467
 Vibration    30          0.694              1.669              1.404
 Vibration    31          0.703              1.642              1.328
 Vibration    32          0.708              1.630              1.296
 Vibration    33          0.725              1.582              1.180
 Vibration    34          0.748              1.518              1.049
 Vibration    35          0.760              1.485              0.989
 Vibration    36          0.786              1.418              0.878
 Vibration    37          0.794              1.397              0.847
 Vibration    38          0.814              1.349              0.779
 Vibration    39          0.819              1.336              0.762
 Vibration    40          0.840              1.285              0.699
 Vibration    41          0.864              1.230              0.636
 Vibration    42          0.874              1.207              0.612
 Vibration    43          0.883              1.188              0.592
 Vibration    44          0.896              1.159              0.563
 Vibration    45          0.925              1.098              0.506
 Vibration    46          0.935              1.078              0.488
 Vibration    47          0.941              1.066              0.478
 Vibration    48          0.945              1.057              0.470

                           ! Non-Optimized Parameters !
 Normal termination of Gaussian 16 at Fri Jan 24 17:40:08 2025.
 Gaussian 16:  ES64L-G16RevC.01  3-Jul-2019

 ----------------------------------------------------------------------
 #p def2tzvp pbe1pbe integral=ultrafinegrid geom=allcheck guess=read em
 =gd3bj
 ----------------------------------------------------------------------

 Structure from the checkpoint file:  "with_hydride.chk"
 ------------
 with_hydride
 ------------
 Charge = -1 Multiplicity = 1

                         Standard orientation:
 ---------------------------------------------------------------------
 Center     Atomic      Atomic             Coordinates (Angstroms)
 Number     Number       Type             X           Y           Z
 ---------------------------------------------------------------------
      1          6           0        0.571418    4.115334    1.570624
      2          7           0        0.446204    2.832679    1.529796
      3          6           0       -0.627512    2.416724    0.752406
      4          5           0       -0.903757    0.817969    0.693504
      5          6           0       -2.095056    0.270471   -0.254620
      6          6           0       -3.218958   -0.316243    0.182981
      7          6           0       -4.296581   -0.906863   -0.677167
      8          6           0       -4.428140   -2.420335   -0.513692
      9          6           0       -5.536556   -3.041247   -1.352402
     10          6           0       -5.654241   -4.548323   -1.185624
     11          6           0        0.482232    0.012753    0.303657
     12          6           0        0.913121   -1.114600    1.053209
     13          6           0        0.138991   -1.622503    2.255538
     14          9           0       -1.130156   -1.918172    1.983091
     15          9           0        0.163008   -0.779488    3.288178
     16          9           0        0.680535   -2.775227    2.724284
     17          6           0        2.073300   -1.826334    0.754857
     18          6           0        2.870093   -1.455484   -0.321033
     19          6           0        4.144306   -2.182471   -0.604778
     20          9           0        4.066380   -3.483431   -0.287479
     21          9           0        5.182293   -1.688630    0.092638
     22          9           0        4.492559   -2.111718   -1.897691
     23          6           0        2.481048   -0.375405   -1.099624
     24          6           0        1.317031    0.334071   -0.800135
     25          6           0        1.051341    1.497563   -1.736443
     26          9           0        1.711800    1.331650   -2.907456
     27          9           0       -0.227327    1.649980   -2.072318
     28          9           0        1.486003    2.661638   -1.246573
     29          6           0       -1.331350    3.466677    0.202166
     30          6           0       -2.510721    3.449542   -0.710515
     31         16           0       -0.620928    4.989493    0.668094
     32          1           0        1.351838    4.644865    2.125180
     33          1           0       -1.992744    0.322835   -1.350868
     34          1           0       -3.365244   -0.420929    1.267927
     35          1           0       -5.276391   -0.446059   -0.439259
     36          1           0       -4.093343   -0.669708   -1.736970
     37          1           0       -4.598102   -2.656730    0.552856
     38          1           0       -3.460285   -2.888193   -0.766956
     39          1           0       -6.498807   -2.563006   -1.093343
     40          1           0       -5.363344   -2.799030   -2.416577
     41          1           0       -6.461971   -4.971096   -1.804423
     42          1           0       -4.716686   -5.053343   -1.469922
     43          1           0       -5.861565   -4.817427   -0.136846
     44          1           0        2.357428   -2.683916    1.363197
     45          1           0        3.086011   -0.089789   -1.959499
     46          1           0       -2.220715    3.645860   -1.757118
     47          1           0       -2.979295    2.457320   -0.671522
     48          1           0       -3.264919    4.200965   -0.425072
     49          1           0       -1.200096    0.537501    1.847137
 ---------------------------------------------------------------------

 SCF Done:  E(RPBE1PBE) =  -2110.15324361     A.U. after   12 cycles

 The electronic state is 1-A.
 Alpha  occ. eigenvalues --  -88.92686 -24.71783 -24.71713 -24.71272 -24.69376
 Alpha  occ. eigenvalues --  -24.69184 -24.68967 -24.68812 -24.68460 -24.68392
 Alpha  occ. eigenvalues --  -14.25168 -10.38324 -10.36162 -10.35730 -10.15686
 Alpha  occ. eigenvalues --  -10.15501 -10.15133 -10.15060 -10.15043 -10.14933
 Alpha  occ. eigenvalues --  -10.13804 -10.13706 -10.13286 -10.12701 -10.12278
 Alpha  occ. eigenvalues --  -10.11470 -10.10992 -10.10032 -10.08679 -10.06654
 Alpha  occ. eigenvalues --   -7.90577  -6.57332  -5.84124  -5.83830  -5.83622
 Alpha  occ. eigenvalues --   -1.26563  -1.24338  -1.23765  -1.17584  -1.17090
 Alpha  occ. eigenvalues --   -1.15144  -1.14785  -1.14521  -1.14329  -0.85367
 Alpha  occ. eigenvalues --   -0.80913  -0.73851  -0.72461  -0.72003  -0.70258
 Alpha  occ. eigenvalues --   -0.68667  -0.64729  -0.64198  -0.62520  -0.62058
 Alpha  occ. eigenvalues --   -0.61690  -0.58721  -0.56307  -0.55463  -0.55251
 Alpha  occ. eigenvalues --   -0.53137  -0.52825  -0.52522  -0.50629  -0.50520
 Alpha  occ. eigenvalues --   -0.50487  -0.50014  -0.49913  -0.46464  -0.45517
 Alpha  occ. eigenvalues --   -0.44103  -0.43964  -0.43108  -0.41263  -0.40802
 Alpha  occ. eigenvalues --   -0.40271  -0.39710  -0.39331  -0.38442  -0.37975
 Alpha  occ. eigenvalues --   -0.37766  -0.37414  -0.37069  -0.36588  -0.36166
 Alpha  occ. eigenvalues --   -0.36044  -0.35513  -0.34498  -0.34441  -0.34078
 Alpha  occ. eigenvalues --   -0.33760  -0.33522  -0.33243  -0.32992  -0.32589
 Alpha  occ. eigenvalues --   -0.32193  -0.31836  -0.31510  -0.31393  -0.30788
 Alpha  occ. eigenvalues --   -0.29856  -0.29420  -0.29229  -0.28227  -0.28127
 Alpha  occ. eigenvalues --   -0.27834  -0.26697  -0.26515  -0.25625  -0.25489
 Alpha  occ. eigenvalues --   -0.24670  -0.23198  -0.20762  -0.19113  -0.18561
 Alpha  occ. eigenvalues --   -0.16882  -0.16051  -0.15126  -0.15024  -0.12010
 Alpha  occ. eigenvalues --   -0.10629
 Alpha virt. eigenvalues --    0.06752   0.06824   0.10363   0.12129   0.13413
 Alpha virt. eigenvalues --    0.14477   0.15095   0.16140   0.16465   0.16883
 Alpha virt. eigenvalues --    0.17334   0.17733   0.18610   0.18912   0.19454

 Mulliken charges:
               1
     1  C   -0.100980
     2  N   -0.189025
     3  C   -0.051676
     4  B   -0.193570
     5  C   -0.322458
     6  C   -0.062133
     7  C   -0.115059
     8  C   -0.230400
     9  C   -0.145612
    10  C   -0.351108
    11  C    0.023096
    12  C    0.033293
    13  C    0.453848
    14  F   -0.147128
    15  F   -0.150405
    16  F   -0.193285
    17  C   -0.349922
    18  C    0.186160
    19  C    0.432024
    20  F   -0.175211
    21  F   -0.170716
    22  F   -0.175155
    23  C   -0.360743
    24  C    0.062945
    25  C    0.491385
    26  F   -0.189143
    27  F   -0.159369
    28  F   -0.153234
    29  C    0.033491
    30  C   -0.361730
    31  S   -0.086469
    32  H    0.111133
    33  H    0.075844
    34  H    0.078881
    35  H    0.071270
    36  H    0.081427
    37  H    0.084366
    38  H    0.102220
    39  H    0.079337
    40  H    0.085966
    41  H    0.107358
    42  H    0.112592
    43  H    0.107450
    44  H    0.135601
    45  H    0.135292
    46  H    0.109517
    47  H    0.162448
    48  H    0.102764
    49  H   -0.025178
 Sum of Mulliken charges =  -1.00000

 Dipole moment (field-independent basis, Debye):
    X=              0.0798    Y=             -2.4404    Z=             -2.6046  Tot=              3.5701
 Quadrupole moment (field-independent basis, Debye-Ang):
   XX=           -218.6365   YY=           -220.7820   ZZ=           -203.7515
   XY=              5.5352   XZ=              3.7883   YZ=             -0.8145

 Normal termination of Gaussian 16 at Fri Jan 24 17:51:03 2025.
